76957565
  -OEChem-12112312352D

 12  4  0     0  0  0  0  0  0999 V2000
    2.5375    1.5000    0.0000 Cl  0  5  0  0  0  0  0  0  0  0  0  0
    1.6714    0.0000    0.0000 Cl  0  5  0  0  0  0  0  0  0  0  0  0
    1.6714    1.0000    0.0000 Al  0  1  0  0  0  0  0  0  0  0  0  0
    1.4030    4.8100    0.0000 Al  0  1  0  0  0  0  0  0  0  0  0  0
    2.2690    5.3100    0.0000 O   0  5  0  0  0  0  0  0  0  0  0  0
    0.5369    5.3100    0.0000 O   0  5  0  0  0  0  0  0  0  0  0  0
    1.4030    3.8100    0.0000 O   0  5  0  0  0  0  0  0  0  0  0  0
    0.8054    1.5000    0.0000 O   0  5  0  0  0  0  0  0  0  0  0  0
    2.8059    5.0000    0.0000 H   0  0  0  0  0  0  0  0  0  0  0  0
    0.0000    5.0000    0.0000 H   0  0  0  0  0  0  0  0  0  0  0  0
    0.8660    3.5000    0.0000 H   0  0  0  0  0  0  0  0  0  0  0  0
    0.2685    1.1900    0.0000 H   0  0  0  0  0  0  0  0  0  0  0  0
  5  9  1  0  0  0  0
  6 10  1  0  0  0  0
  7 11  1  0  0  0  0
  8 12  1  0  0  0  0
M  CHG  8   1  -1   2  -1   3   3   4   3   5  -1   6  -1   7  -1   8  -1
M  END
> <PUBCHEM_COMPOUND_CID>
76957565

> <PUBCHEM_COMPOUND_CANONICALIZED>
1

> <PUBCHEM_CACTVS_COMPLEXITY>
0

> <PUBCHEM_CACTVS_HBOND_ACCEPTOR>
6

> <PUBCHEM_CACTVS_HBOND_DONOR>
4

> <PUBCHEM_CACTVS_ROTATABLE_BOND>
0

> <PUBCHEM_CACTVS_SUBSKEYS>
AAADcYAAOAAGABAAAAAAAAAAAAAAAAAAAAAAAAAAAAAAAAAAAAAAAAAACAAAAAAAAAAAAAAAAAAAAAAAAAAAAAAAAAAAAAAAAAAAAAAAAAAAAAAAAAAAAAAAAAAAAAAAAAAAAAAAAAAAAAAAAAAAAAAAAA==

> <PUBCHEM_IUPAC_OPENEYE_NAME>
dialuminum;dichloride;tetrahydroxide

> <PUBCHEM_IUPAC_CAS_NAME>
dialuminum;dichloride;tetrahydroxide

> <PUBCHEM_IUPAC_NAME_MARKUP>
dialuminum;dichloride;tetrahydroxide

> <PUBCHEM_IUPAC_NAME>
dialuminum;dichloride;tetrahydroxide

> <PUBCHEM_IUPAC_SYSTEMATIC_NAME>
dialuminum;dichloride;tetrahydroxide

> <PUBCHEM_IUPAC_TRADITIONAL_NAME>
dialuminum;dichloride;tetrahydroxide

> <PUBCHEM_IUPAC_INCHI>
InChI=1S/2Al.2ClH.4H2O/h;;2*1H;4*1H2/q2*+3;;;;;;/p-6

> <PUBCHEM_IUPAC_INCHIKEY>
XILPPDQAWPSZIL-UHFFFAOYSA-H

> <PUBCHEM_EXACT_MASS>
191.911741

> <PUBCHEM_MOLECULAR_FORMULA>
Al2Cl2H4O4

> <PUBCHEM_MOLECULAR_WEIGHT>
192.90

> <PUBCHEM_OPENEYE_CAN_SMILES>
[OH-].[OH-].[OH-].[OH-].[Al+3].[Al+3].[Cl-].[Cl-]

> <PUBCHEM_OPENEYE_ISO_SMILES>
[OH-].[OH-].[OH-].[OH-].[Al+3].[Al+3].[Cl-].[Cl-]

> <PUBCHEM_CACTVS_TPSA>
4

> <PUBCHEM_MONOISOTOPIC_WEIGHT>
191.911741

> <PUBCHEM_TOTAL_CHARGE>
0

> <PUBCHEM_HEAVY_ATOM_COUNT>
8

> <PUBCHEM_ATOM_DEF_STEREO_COUNT>
0

> <PUBCHEM_ATOM_UDEF_STEREO_COUNT>
0

> <PUBCHEM_BOND_DEF_STEREO_COUNT>
0

> <PUBCHEM_BOND_UDEF_STEREO_COUNT>
0

> <PUBCHEM_ISOTOPIC_ATOM_COUNT>
0

> <PUBCHEM_COMPONENT_COUNT>
8

> <PUBCHEM_CACTVS_TAUTO_COUNT>
-1

> <PUBCHEM_COORDINATE_TYPE>
1
5
255

$$$$
