6321309
  -OEChem-04022401352D

 66 69  0     1  0  0  0  0  0999 V2000
    7.5929    0.0000    0.0000 Cl  0  0  0  0  0  0  0  0  0  0  0  0
    5.9864    5.4055    0.0000 O   0  0  0  0  0  0  0  0  0  0  0  0
    8.9111    3.6355    0.0000 O   0  0  0  0  0  0  0  0  0  0  0  0
    5.7550    2.9505    0.0000 O   0  0  0  0  0  0  0  0  0  0  0  0
    5.7550    7.7548    0.0000 O   0  0  0  0  0  0  0  0  0  0  0  0
    1.4030    1.7824    0.0000 O   0  0  0  0  0  0  0  0  0  0  0  0
    3.1350    5.7824    0.0000 O   0  0  0  0  0  0  0  0  0  0  0  0
    9.9156    4.4016    0.0000 N   0  0  3  0  0  0  0  0  0  0  0  0
    1.4030    5.7824    0.0000 N   0  0  0  0  0  0  0  0  0  0  0  0
    7.4447    4.8771    0.0000 C   0  0  1  0  0  0  0  0  0  0  0  0
    8.2683    4.4016    0.0000 C   0  0  1  0  0  0  0  0  0  0  0  0
    9.0920    4.8771    0.0000 C   0  0  1  0  0  0  0  0  0  0  0  0
    6.6210    4.4016    0.0000 C   0  0  2  0  0  0  0  0  0  0  0  0
    7.9942    5.5746    0.0000 C   0  0  0  0  0  0  0  0  0  0  0  0
    7.4447    5.8282    0.0000 C   0  0  0  0  0  0  0  0  0  0  0  0
    8.2683    3.4505    0.0000 C   0  0  0  0  0  0  0  0  0  0  0  0
    9.0920    5.8282    0.0000 C   0  0  0  0  0  0  0  0  0  0  0  0
    9.3468    5.5746    0.0000 C   0  0  0  0  0  0  0  0  0  0  0  0
    8.2683    6.3037    0.0000 C   0  0  0  0  0  0  0  0  0  0  0  0
    7.4447    2.9750    0.0000 C   0  0  0  0  0  0  0  0  0  0  0  0
    6.6210    3.4505    0.0000 C   0  0  0  0  0  0  0  0  0  0  0  0
    6.6210    6.3037    0.0000 C   0  0  0  0  0  0  0  0  0  0  0  0
   10.5968    3.6694    0.0000 C   0  0  0  0  0  0  0  0  0  0  0  0
    8.2683    7.2548    0.0000 C   0  0  0  0  0  0  0  0  0  0  0  0
    6.6210    7.2548    0.0000 C   0  0  0  0  0  0  0  0  0  0  0  0
    7.4447    7.7303    0.0000 C   0  0  0  0  0  0  0  0  0  0  0  0
    5.7550    8.7548    0.0000 C   0  0  0  0  0  0  0  0  0  0  0  0
    1.4030    4.7824    0.0000 C   0  0  0  0  0  0  0  0  0  0  0  0
    2.2690    4.2824    0.0000 C   0  0  0  0  0  0  0  0  0  0  0  0
    0.5369    4.2824    0.0000 C   0  0  0  0  0  0  0  0  0  0  0  0
    2.2690    3.2824    0.0000 C   0  0  0  0  0  0  0  0  0  0  0  0
    0.5369    3.2824    0.0000 C   0  0  0  0  0  0  0  0  0  0  0  0
    1.4030    2.7824    0.0000 C   0  0  0  0  0  0  0  0  0  0  0  0
    2.2690    6.2824    0.0000 C   0  0  0  0  0  0  0  0  0  0  0  0
    2.2690    7.2824    0.0000 C   0  0  0  0  0  0  0  0  0  0  0  0
    9.3834    4.0786    0.0000 H   0  0  0  0  0  0  0  0  0  0  0  0
    5.8046    4.1651    0.0000 H   0  0  0  0  0  0  0  0  0  0  0  0
    8.1310    6.1793    0.0000 H   0  0  0  0  0  0  0  0  0  0  0  0
    7.4346    5.8414    0.0000 H   0  0  0  0  0  0  0  0  0  0  0  0
    8.4804    2.8679    0.0000 H   0  0  0  0  0  0  0  0  0  0  0  0
    8.8789    3.5582    0.0000 H   0  0  0  0  0  0  0  0  0  0  0  0
    9.7026    5.7205    0.0000 H   0  0  0  0  0  0  0  0  0  0  0  0
    9.3040    6.4108    0.0000 H   0  0  0  0  0  0  0  0  0  0  0  0
    9.9390    5.7584    0.0000 H   0  0  0  0  0  0  0  0  0  0  0  0
    9.2539    6.1875    0.0000 H   0  0  0  0  0  0  0  0  0  0  0  0
    7.0462    2.5000    0.0000 H   0  0  0  0  0  0  0  0  0  0  0  0
    7.8432    2.5000    0.0000 H   0  0  0  0  0  0  0  0  0  0  0  0
    9.0188    3.0250    0.0000 H   0  0  0  0  0  0  0  0  0  0  0  0
   10.1429    3.2471    0.0000 H   0  0  0  0  0  0  0  0  0  0  0  0
   11.0191    3.2155    0.0000 H   0  0  0  0  0  0  0  0  0  0  0  0
   11.0507    4.0918    0.0000 H   0  0  0  0  0  0  0  0  0  0  0  0
    8.8053    7.5648    0.0000 H   0  0  0  0  0  0  0  0  0  0  0  0
    7.4447    8.3503    0.0000 H   0  0  0  0  0  0  0  0  0  0  0  0
    6.3750    8.7548    0.0000 H   0  0  0  0  0  0  0  0  0  0  0  0
    5.7550    9.3748    0.0000 H   0  0  0  0  0  0  0  0  0  0  0  0
    5.1350    8.7548    0.0000 H   0  0  0  0  0  0  0  0  0  0  0  0
    2.8059    4.5924    0.0000 H   0  0  0  0  0  0  0  0  0  0  0  0
    0.0000    4.5924    0.0000 H   0  0  0  0  0  0  0  0  0  0  0  0
    2.8059    2.9724    0.0000 H   0  0  0  0  0  0  0  0  0  0  0  0
    0.0000    2.9724    0.0000 H   0  0  0  0  0  0  0  0  0  0  0  0
    0.8660    6.0924    0.0000 H   0  0  0  0  0  0  0  0  0  0  0  0
    2.8890    7.2824    0.0000 H   0  0  0  0  0  0  0  0  0  0  0  0
    2.2690    7.9024    0.0000 H   0  0  0  0  0  0  0  0  0  0  0  0
    1.6490    7.2824    0.0000 H   0  0  0  0  0  0  0  0  0  0  0  0
    0.8660    1.4724    0.0000 H   0  0  0  0  0  0  0  0  0  0  0  0
    8.5929    0.0000    0.0000 H   0  0  0  0  0  0  0  0  0  0  0  0
  1 66  1  0  0  0  0
  2 13  1  0  0  0  0
  2 22  1  0  0  0  0
 11  3  1  1  0  0  0
  3 48  1  0  0  0  0
  4 21  2  0  0  0  0
  5 25  1  0  0  0  0
  5 27  1  0  0  0  0
  6 33  1  0  0  0  0
  6 65  1  0  0  0  0
  7 34  2  0  0  0  0
  8 12  1  0  0  0  0
  8 18  1  0  0  0  0
  8 23  1  0  0  0  0
  9 28  1  0  0  0  0
  9 34  1  0  0  0  0
  9 61  1  0  0  0  0
 10 11  1  0  0  0  0
 10 13  1  0  0  0  0
 10 14  1  1  0  0  0
 10 15  1  0  0  0  0
 11 12  1  0  0  0  0
 11 16  1  0  0  0  0
 12 17  1  0  0  0  0
 12 36  1  6  0  0  0
 13 21  1  0  0  0  0
 13 37  1  1  0  0  0
 14 18  1  0  0  0  0
 14 38  1  0  0  0  0
 14 39  1  0  0  0  0
 15 19  2  0  0  0  0
 15 22  1  0  0  0  0
 16 20  1  0  0  0  0
 16 40  1  0  0  0  0
 16 41  1  0  0  0  0
 17 19  1  0  0  0  0
 17 42  1  0  0  0  0
 17 43  1  0  0  0  0
 18 44  1  0  0  0  0
 18 45  1  0  0  0  0
 19 24  1  0  0  0  0
 20 21  1  0  0  0  0
 20 46  1  0  0  0  0
 20 47  1  0  0  0  0
 22 25  2  0  0  0  0
 23 49  1  0  0  0  0
 23 50  1  0  0  0  0
 23 51  1  0  0  0  0
 24 26  2  0  0  0  0
 24 52  1  0  0  0  0
 25 26  1  0  0  0  0
 26 53  1  0  0  0  0
 27 54  1  0  0  0  0
 27 55  1  0  0  0  0
 27 56  1  0  0  0  0
 28 29  2  0  0  0  0
 28 30  1  0  0  0  0
 29 31  1  0  0  0  0
 29 57  1  0  0  0  0
 30 32  2  0  0  0  0
 30 58  1  0  0  0  0
 31 33  2  0  0  0  0
 31 59  1  0  0  0  0
 32 33  1  0  0  0  0
 32 60  1  0  0  0  0
 34 35  1  0  0  0  0
 35 62  1  0  0  0  0
 35 63  1  0  0  0  0
 35 64  1  0  0  0  0
M  END
> <PUBCHEM_COMPOUND_CID>
6321309

> <PUBCHEM_COMPOUND_CANONICALIZED>
1

> <PUBCHEM_CACTVS_COMPLEXITY>
692

> <PUBCHEM_CACTVS_HBOND_ACCEPTOR>
7

> <PUBCHEM_CACTVS_HBOND_DONOR>
4

> <PUBCHEM_CACTVS_ROTATABLE_BOND>
2

> <PUBCHEM_CACTVS_SUBSKEYS>
AAADceB7OAAEAAAAAAAAAAAAAAAAASAAAAA8YMGCAAAWAEjxQAAAHgAQCAAADnzhmAYyxoPABgCIAqVSUAKCCAAhIgAIiAFO7IgPJjLGsZ+GeCrl1BHa+Af6/f/foEABAAAYQADQgAaQADSgAAAAAAAAAA==

> <PUBCHEM_IUPAC_OPENEYE_NAME>
(4R,4aS,7aR,12bS)-4a-hydroxy-9-methoxy-3-methyl-2,4,5,6,7a,13-hexahydro-1H-4,12-methanobenzofuro[3,2-e]isoquinolin-7-one;N-(4-hydroxyphenyl)acetamide;hydrochloride

> <PUBCHEM_IUPAC_CAS_NAME>
(4R,4aS,7aR,12bS)-4a-hydroxy-9-methoxy-3-methyl-2,4,5,6,7a,13-hexahydro-1H-4,12-methanobenzofuro[3,2-e]isoquinolin-7-one;N-(4-hydroxyphenyl)acetamide;hydrochloride

> <PUBCHEM_IUPAC_NAME_MARKUP>
(4<I>R</I>,4<I>a</I><I>S</I>,7<I>a</I><I>R</I>,12<I>b</I><I>S</I>)-4<I>a</I>-hydroxy-9-methoxy-3-methyl-2,4,5,6,7<I>a</I>,13-hexahydro-1<I>H</I>-4,12-methanobenzofuro[3,2-e]isoquinolin-7-one;<I>N</I>-(4-hydroxyphenyl)acetamide;hydrochloride

> <PUBCHEM_IUPAC_NAME>
(4R,4aS,7aR,12bS)-4a-hydroxy-9-methoxy-3-methyl-2,4,5,6,7a,13-hexahydro-1H-4,12-methanobenzofuro[3,2-e]isoquinolin-7-one;N-(4-hydroxyphenyl)acetamide;hydrochloride

> <PUBCHEM_IUPAC_SYSTEMATIC_NAME>
(4R,4aS,7aR,12bS)-9-methoxy-3-methyl-4a-oxidanyl-2,4,5,6,7a,13-hexahydro-1H-4,12-methanobenzofuro[3,2-e]isoquinolin-7-one;N-(4-hydroxyphenyl)ethanamide;hydrochloride

> <PUBCHEM_IUPAC_TRADITIONAL_NAME>
(4R,4aS,7aR,12bS)-4a-hydroxy-9-methoxy-3-methyl-2,4,5,6,7a,13-hexahydro-1H-4,12-methanobenzofuro[3,2-e]isoquinolin-7-one;N-(4-hydroxyphenyl)acetamide;hydrochloride

> <PUBCHEM_IUPAC_INCHI>
InChI=1S/C18H21NO4.C8H9NO2.ClH/c1-19-8-7-17-14-10-3-4-12(22-2)15(14)23-16(17)11(20)5-6-18(17,21)13(19)9-10;1-6(10)9-7-2-4-8(11)5-3-7;/h3-4,13,16,21H,5-9H2,1-2H3;2-5,11H,1H3,(H,9,10);1H/t13-,16+,17+,18-;;/m1../s1

> <PUBCHEM_IUPAC_INCHIKEY>
LPIDDOOVLLQTPE-PCHTVJFHSA-N

> <PUBCHEM_EXACT_MASS>
502.1870644

> <PUBCHEM_MOLECULAR_FORMULA>
C26H31ClN2O6

> <PUBCHEM_MOLECULAR_WEIGHT>
503.0

> <PUBCHEM_OPENEYE_CAN_SMILES>
CC(=O)NC1=CC=C(C=C1)O.CN1CCC23C4C(=O)CCC2(C1CC5=C3C(=C(C=C5)OC)O4)O.Cl

> <PUBCHEM_OPENEYE_ISO_SMILES>
CC(=O)NC1=CC=C(C=C1)O.CN1CC[C@]23[C@@H]4C(=O)CC[C@]2([C@H]1CC5=C3C(=C(C=C5)OC)O4)O.Cl

> <PUBCHEM_CACTVS_TPSA>
108

> <PUBCHEM_MONOISOTOPIC_WEIGHT>
502.1870644

> <PUBCHEM_TOTAL_CHARGE>
0

> <PUBCHEM_HEAVY_ATOM_COUNT>
35

> <PUBCHEM_ATOM_DEF_STEREO_COUNT>
4

> <PUBCHEM_ATOM_UDEF_STEREO_COUNT>
0

> <PUBCHEM_BOND_DEF_STEREO_COUNT>
0

> <PUBCHEM_BOND_UDEF_STEREO_COUNT>
0

> <PUBCHEM_ISOTOPIC_ATOM_COUNT>
0

> <PUBCHEM_COMPONENT_COUNT>
3

> <PUBCHEM_CACTVS_TAUTO_COUNT>
-1

> <PUBCHEM_COORDINATE_TYPE>
1
5
255

> <PUBCHEM_BONDANNOTATIONS>
10  14  5
12  36  6
13  37  5
15  19  8
15  22  8
19  24  8
22  25  8
24  26  8
25  26  8
28  29  8
28  30  8
29  31  8
11  3  5
30  32  8
31  33  8
32  33  8

$$$$
