56840904
  -OEChem-12122310272D

 51 50  0     0  0  0  0  0  0999 V2000
    0.0000    2.4860    0.0000 I   0  0  0  0  0  0  0  0  0  0  0  0
    6.0010    0.6200    0.0000 I   0  0  0  0  0  0  0  0  0  0  0  0
    8.0016    9.1060    0.0000 S   0  0  0  0  0  0  0  0  0  0  0  0
    8.8676    9.6060    0.0000 O   0  0  0  0  0  0  0  0  0  0  0  0
    7.1355    8.6060    0.0000 O   0  0  0  0  0  0  0  0  0  0  0  0
    7.5016    9.9720    0.0000 O   0  0  0  0  0  0  0  0  0  0  0  0
    8.5016    8.2400    0.0000 O   0  0  0  0  0  0  0  0  0  0  0  0
    2.5981    5.9860    0.0000 N   0  0  0  0  0  0  0  0  0  0  0  0
    8.5991    4.1200    0.0000 N   0  0  0  0  0  0  0  0  0  0  0  0
    3.4641    7.4860    0.0000 N   0  0  0  0  0  0  0  0  0  0  0  0
    1.7320    7.4860    0.0000 N   0  0  0  0  0  0  0  0  0  0  0  0
    9.4651    5.6200    0.0000 N   0  0  0  0  0  0  0  0  0  0  0  0
    7.7331    5.6200    0.0000 N   0  0  0  0  0  0  0  0  0  0  0  0
    1.7320    4.4860    0.0000 C   0  0  0  0  0  0  0  0  0  0  0  0
    7.7331    2.6200    0.0000 C   0  0  0  0  0  0  0  0  0  0  0  0
    1.7320    5.4860    0.0000 C   0  0  0  0  0  0  0  0  0  0  0  0
    7.7331    3.6200    0.0000 C   0  0  0  0  0  0  0  0  0  0  0  0
    0.8660    3.9860    0.0000 C   0  0  0  0  0  0  0  0  0  0  0  0
    6.8671    2.1200    0.0000 C   0  0  0  0  0  0  0  0  0  0  0  0
    2.5981    3.9860    0.0000 C   0  0  0  0  0  0  0  0  0  0  0  0
    8.5991    2.1200    0.0000 C   0  0  0  0  0  0  0  0  0  0  0  0
    0.8660    2.9860    0.0000 C   0  0  0  0  0  0  0  0  0  0  0  0
    6.8671    1.1200    0.0000 C   0  0  0  0  0  0  0  0  0  0  0  0
    2.5981    2.9860    0.0000 C   0  0  0  0  0  0  0  0  0  0  0  0
    8.5991    1.1200    0.0000 C   0  0  0  0  0  0  0  0  0  0  0  0
    1.7320    2.4860    0.0000 C   0  0  0  0  0  0  0  0  0  0  0  0
    7.7331    0.6200    0.0000 C   0  0  0  0  0  0  0  0  0  0  0  0
    2.5981    6.9860    0.0000 C   0  0  0  0  0  0  0  0  0  0  0  0
    8.5991    5.1200    0.0000 C   0  0  0  0  0  0  0  0  0  0  0  0
    1.5200    6.0686    0.0000 H   0  0  0  0  0  0  0  0  0  0  0  0
    1.1215    5.3784    0.0000 H   0  0  0  0  0  0  0  0  0  0  0  0
    7.5210    4.2026    0.0000 H   0  0  0  0  0  0  0  0  0  0  0  0
    7.1225    3.5123    0.0000 H   0  0  0  0  0  0  0  0  0  0  0  0
    0.3291    4.2960    0.0000 H   0  0  0  0  0  0  0  0  0  0  0  0
    6.3301    2.4300    0.0000 H   0  0  0  0  0  0  0  0  0  0  0  0
    3.1350    4.2960    0.0000 H   0  0  0  0  0  0  0  0  0  0  0  0
    9.1360    2.4300    0.0000 H   0  0  0  0  0  0  0  0  0  0  0  0
    3.1350    2.6760    0.0000 H   0  0  0  0  0  0  0  0  0  0  0  0
    9.1360    0.8100    0.0000 H   0  0  0  0  0  0  0  0  0  0  0  0
    1.7320    1.8660    0.0000 H   0  0  0  0  0  0  0  0  0  0  0  0
    7.7331    0.0000    0.0000 H   0  0  0  0  0  0  0  0  0  0  0  0
    3.4641    8.1060    0.0000 H   0  0  0  0  0  0  0  0  0  0  0  0
    4.0010    7.1760    0.0000 H   0  0  0  0  0  0  0  0  0  0  0  0
    1.7320    8.1060    0.0000 H   0  0  0  0  0  0  0  0  0  0  0  0
    1.1951    7.1760    0.0000 H   0  0  0  0  0  0  0  0  0  0  0  0
    9.4651    6.2400    0.0000 H   0  0  0  0  0  0  0  0  0  0  0  0
   10.0021    5.3100    0.0000 H   0  0  0  0  0  0  0  0  0  0  0  0
    7.7331    6.2400    0.0000 H   0  0  0  0  0  0  0  0  0  0  0  0
    7.1962    5.3100    0.0000 H   0  0  0  0  0  0  0  0  0  0  0  0
    9.4045    9.2960    0.0000 H   0  0  0  0  0  0  0  0  0  0  0  0
    6.5986    8.9160    0.0000 H   0  0  0  0  0  0  0  0  0  0  0  0
  1 22  1  0  0  0  0
  2 23  1  0  0  0  0
  3  4  1  0  0  0  0
  3  5  1  0  0  0  0
  3  6  2  0  0  0  0
  3  7  2  0  0  0  0
  4 50  1  0  0  0  0
  5 51  1  0  0  0  0
  8 16  1  0  0  0  0
  8 28  2  0  0  0  0
  9 17  1  0  0  0  0
  9 29  2  0  0  0  0
 10 28  1  0  0  0  0
 10 42  1  0  0  0  0
 10 43  1  0  0  0  0
 11 28  1  0  0  0  0
 11 44  1  0  0  0  0
 11 45  1  0  0  0  0
 12 29  1  0  0  0  0
 12 46  1  0  0  0  0
 12 47  1  0  0  0  0
 13 29  1  0  0  0  0
 13 48  1  0  0  0  0
 13 49  1  0  0  0  0
 14 16  1  0  0  0  0
 14 18  2  0  0  0  0
 14 20  1  0  0  0  0
 15 17  1  0  0  0  0
 15 19  2  0  0  0  0
 15 21  1  0  0  0  0
 16 30  1  0  0  0  0
 16 31  1  0  0  0  0
 17 32  1  0  0  0  0
 17 33  1  0  0  0  0
 18 22  1  0  0  0  0
 18 34  1  0  0  0  0
 19 23  1  0  0  0  0
 19 35  1  0  0  0  0
 20 24  2  0  0  0  0
 20 36  1  0  0  0  0
 21 25  2  0  0  0  0
 21 37  1  0  0  0  0
 22 26  2  0  0  0  0
 23 27  2  0  0  0  0
 24 26  1  0  0  0  0
 24 38  1  0  0  0  0
 25 27  1  0  0  0  0
 25 39  1  0  0  0  0
 26 40  1  0  0  0  0
 27 41  1  0  0  0  0
M  ISO  2   1 123   2 123
M  END
> <PUBCHEM_COMPOUND_CID>
56840904

> <PUBCHEM_COMPOUND_CANONICALIZED>
1

> <PUBCHEM_CACTVS_COMPLEXITY>
247

> <PUBCHEM_CACTVS_HBOND_ACCEPTOR>
6

> <PUBCHEM_CACTVS_HBOND_DONOR>
6

> <PUBCHEM_CACTVS_ROTATABLE_BOND>
4

> <PUBCHEM_CACTVS_SUBSKEYS>
AAADceB7uABAAwAAAAAAAAAAAAAAAAAAAAAwYAAAAAAAAAABQAAAHAAwCAAADADDGAQxAIJAAICgAiBCJDCCAAEgAAAIiAAABIgIICKAkRGAIABggAAIiAcQgAAOAAAAAAAAAAAAAAAAAAAAAAAAAAAAAA==

> <PUBCHEM_IUPAC_OPENEYE_NAME>
2-[(3-(123I)iodanylphenyl)methyl]guanidine;sulfuric acid

> <PUBCHEM_IUPAC_CAS_NAME>
2-[(3-(123I)iodanylphenyl)methyl]guanidine;sulfuric acid

> <PUBCHEM_IUPAC_NAME_MARKUP>
2-[(3-(<SUP>123</SUP>I)iodanylphenyl)methyl]guanidine;sulfuric acid

> <PUBCHEM_IUPAC_NAME>
2-[(3-(123I)iodanylphenyl)methyl]guanidine;sulfuric acid

> <PUBCHEM_IUPAC_SYSTEMATIC_NAME>
2-[(3-(123I)iodanylphenyl)methyl]guanidine;sulfuric acid

> <PUBCHEM_IUPAC_TRADITIONAL_NAME>
2-(3-(123I)iodanylbenzyl)guanidine;sulfuric acid

> <PUBCHEM_IUPAC_INCHI>
InChI=1S/2C8H10IN3.H2O4S/c2*9-7-3-1-2-6(4-7)5-12-8(10)11;1-5(2,3)4/h2*1-4H,5H2,(H4,10,11,12);(H2,1,2,3,4)/i2*9-4;

> <PUBCHEM_IUPAC_INCHIKEY>
XNACDNPGABUBFR-FKNPGSCZSA-N

> <PUBCHEM_EXACT_MASS>
639.95350

> <PUBCHEM_MOLECULAR_FORMULA>
C16H22I2N6O4S

> <PUBCHEM_MOLECULAR_WEIGHT>
640.3

> <PUBCHEM_OPENEYE_CAN_SMILES>
C1=CC(=CC(=C1)I)CN=C(N)N.C1=CC(=CC(=C1)I)CN=C(N)N.OS(=O)(=O)O

> <PUBCHEM_OPENEYE_ISO_SMILES>
C1=CC(=CC(=C1)[123I])CN=C(N)N.C1=CC(=CC(=C1)[123I])CN=C(N)N.OS(=O)(=O)O

> <PUBCHEM_CACTVS_TPSA>
212

> <PUBCHEM_MONOISOTOPIC_WEIGHT>
639.95350

> <PUBCHEM_TOTAL_CHARGE>
0

> <PUBCHEM_HEAVY_ATOM_COUNT>
29

> <PUBCHEM_ATOM_DEF_STEREO_COUNT>
0

> <PUBCHEM_ATOM_UDEF_STEREO_COUNT>
0

> <PUBCHEM_BOND_DEF_STEREO_COUNT>
0

> <PUBCHEM_BOND_UDEF_STEREO_COUNT>
0

> <PUBCHEM_ISOTOPIC_ATOM_COUNT>
2

> <PUBCHEM_COMPONENT_COUNT>
3

> <PUBCHEM_CACTVS_TAUTO_COUNT>
3

> <PUBCHEM_COORDINATE_TYPE>
1
5
255

> <PUBCHEM_BONDANNOTATIONS>
14  18  8
14  20  8
15  19  8
15  21  8
18  22  8
19  23  8
20  24  8
21  25  8
22  26  8
23  27  8
24  26  8
25  27  8

$$$$
135326
  -OEChem-12122310272D

 22 22  0     0  0  0  0  0  0999 V2000
    2.0000   -2.8100    0.0000 I   0  0  0  0  0  0  0  0  0  0  0  0
    4.5981    0.6900    0.0000 N   0  0  0  0  0  0  0  0  0  0  0  0
    5.4641    2.1900    0.0000 N   0  0  0  0  0  0  0  0  0  0  0  0
    3.7320    2.1900    0.0000 N   0  0  0  0  0  0  0  0  0  0  0  0
    3.7320   -0.8100    0.0000 C   0  0  0  0  0  0  0  0  0  0  0  0
    3.7320    0.1900    0.0000 C   0  0  0  0  0  0  0  0  0  0  0  0
    2.8660   -1.3100    0.0000 C   0  0  0  0  0  0  0  0  0  0  0  0
    4.5981   -1.3100    0.0000 C   0  0  0  0  0  0  0  0  0  0  0  0
    2.8660   -2.3100    0.0000 C   0  0  0  0  0  0  0  0  0  0  0  0
    4.5981   -2.3100    0.0000 C   0  0  0  0  0  0  0  0  0  0  0  0
    3.7320   -2.8100    0.0000 C   0  0  0  0  0  0  0  0  0  0  0  0
    4.5981    1.6900    0.0000 C   0  0  0  0  0  0  0  0  0  0  0  0
    3.5200    0.7726    0.0000 H   0  0  0  0  0  0  0  0  0  0  0  0
    3.1215    0.0823    0.0000 H   0  0  0  0  0  0  0  0  0  0  0  0
    2.3291   -1.0000    0.0000 H   0  0  0  0  0  0  0  0  0  0  0  0
    5.1350   -1.0000    0.0000 H   0  0  0  0  0  0  0  0  0  0  0  0
    5.1350   -2.6200    0.0000 H   0  0  0  0  0  0  0  0  0  0  0  0
    3.7320   -3.4300    0.0000 H   0  0  0  0  0  0  0  0  0  0  0  0
    5.4641    2.8100    0.0000 H   0  0  0  0  0  0  0  0  0  0  0  0
    6.0010    1.8800    0.0000 H   0  0  0  0  0  0  0  0  0  0  0  0
    3.7320    2.8100    0.0000 H   0  0  0  0  0  0  0  0  0  0  0  0
    3.1951    1.8800    0.0000 H   0  0  0  0  0  0  0  0  0  0  0  0
  1  9  1  0  0  0  0
  2  6  1  0  0  0  0
  2 12  2  0  0  0  0
  3 12  1  0  0  0  0
  3 19  1  0  0  0  0
  3 20  1  0  0  0  0
  4 12  1  0  0  0  0
  4 21  1  0  0  0  0
  4 22  1  0  0  0  0
  5  6  1  0  0  0  0
  5  7  2  0  0  0  0
  5  8  1  0  0  0  0
  6 13  1  0  0  0  0
  6 14  1  0  0  0  0
  7  9  1  0  0  0  0
  7 15  1  0  0  0  0
  8 10  2  0  0  0  0
  8 16  1  0  0  0  0
  9 11  2  0  0  0  0
 10 11  1  0  0  0  0
 10 17  1  0  0  0  0
 11 18  1  0  0  0  0
M  ISO  1   1 123
M  END
> <PUBCHEM_COMPOUND_CID>
135326

> <PUBCHEM_COMPOUND_CANONICALIZED>
1

> <PUBCHEM_CACTVS_COMPLEXITY>
166

> <PUBCHEM_CACTVS_HBOND_ACCEPTOR>
1

> <PUBCHEM_CACTVS_HBOND_DONOR>
2

> <PUBCHEM_CACTVS_ROTATABLE_BOND>
2

> <PUBCHEM_CACTVS_SUBSKEYS>
AAADccBzAAAAAgAAAAAAAAAAAAAAAAAAAAAwAAAAAAAAAAABAAAAHAAwAAAADADDGAQxAIJAAACgAiBCJACCAAEgAAAIiAAABIgIICKAkRGAIABggAAIiAcQgAAOAAAAAAAAAAAAAAAAAAAAAAAAAAAAAA==

> <PUBCHEM_IUPAC_OPENEYE_NAME>
2-[(3-(123I)iodanylphenyl)methyl]guanidine

> <PUBCHEM_IUPAC_CAS_NAME>
2-[(3-(123I)iodanylphenyl)methyl]guanidine

> <PUBCHEM_IUPAC_NAME_MARKUP>
2-[(3-(<SUP>123</SUP>I)iodanylphenyl)methyl]guanidine

> <PUBCHEM_IUPAC_NAME>
2-[(3-(123I)iodanylphenyl)methyl]guanidine

> <PUBCHEM_IUPAC_SYSTEMATIC_NAME>
2-[(3-(123I)iodanylphenyl)methyl]guanidine

> <PUBCHEM_IUPAC_TRADITIONAL_NAME>
2-(3-(123I)iodanylbenzyl)guanidine

> <PUBCHEM_IUPAC_INCHI>
InChI=1S/C8H10IN3/c9-7-3-1-2-6(4-7)5-12-8(10)11/h1-4H,5H2,(H4,10,11,12)/i9-4

> <PUBCHEM_IUPAC_INCHIKEY>
PDWUPXJEEYOOTR-IUAIQHPESA-N

> <PUBCHEM_XLOGP3_AA>
1

> <PUBCHEM_EXACT_MASS>
270.99306

> <PUBCHEM_MOLECULAR_FORMULA>
C8H10IN3

> <PUBCHEM_MOLECULAR_WEIGHT>
271.09

> <PUBCHEM_OPENEYE_CAN_SMILES>
C1=CC(=CC(=C1)I)CN=C(N)N

> <PUBCHEM_OPENEYE_ISO_SMILES>
C1=CC(=CC(=C1)[123I])CN=C(N)N

> <PUBCHEM_CACTVS_TPSA>
64.4

> <PUBCHEM_MONOISOTOPIC_WEIGHT>
270.99306

> <PUBCHEM_TOTAL_CHARGE>
0

> <PUBCHEM_HEAVY_ATOM_COUNT>
12

> <PUBCHEM_ATOM_DEF_STEREO_COUNT>
0

> <PUBCHEM_ATOM_UDEF_STEREO_COUNT>
0

> <PUBCHEM_BOND_DEF_STEREO_COUNT>
0

> <PUBCHEM_BOND_UDEF_STEREO_COUNT>
0

> <PUBCHEM_ISOTOPIC_ATOM_COUNT>
1

> <PUBCHEM_COMPONENT_COUNT>
1

> <PUBCHEM_CACTVS_TAUTO_COUNT>
3

> <PUBCHEM_COORDINATE_TYPE>
1
5
255

> <PUBCHEM_BONDANNOTATIONS>
10  11  8
5  7  8
5  8  8
7  9  8
8  10  8
9  11  8

$$$$
