4052643
  -OEChem-12122308402D

 61 62  0     1  0  0  0  0  0999 V2000
    4.5981   -0.2500    0.0000 O   0  0  0  0  0  0  0  0  0  0  0  0
    5.4641    0.2500    0.0000 O   0  0  0  0  0  0  0  0  0  0  0  0
    8.0622    2.7500    0.0000 O   0  0  0  0  0  0  0  0  0  0  0  0
   10.6603    0.2500    0.0000 O   0  0  0  0  0  0  0  0  0  0  0  0
   14.1244    1.2500    0.0000 O   0  0  0  0  0  0  0  0  0  0  0  0
    2.0000   -4.7500    0.0000 O   0  5  0  0  0  0  0  0  0  0  0  0
    3.7320   -4.7500    0.0000 O   0  0  0  0  0  0  0  0  0  0  0  0
   13.2583    2.7500    0.0000 O   0  0  0  0  0  0  0  0  0  0  0  0
    4.5981    1.7500    0.0000 N   0  0  0  0  0  0  0  0  0  0  0  0
    2.8660   -0.2500    0.0000 N   0  0  0  0  0  0  0  0  0  0  0  0
    7.1962    1.2500    0.0000 N   0  0  0  0  0  0  0  0  0  0  0  0
    9.7942    1.7500    0.0000 N   0  0  0  0  0  0  0  0  0  0  0  0
    2.8660   -4.2500    0.0000 N   0  3  0  0  0  0  0  0  0  0  0  0
    3.7320    1.2500    0.0000 C   0  0  3  0  0  0  0  0  0  0  0  0
    2.8660    1.7500    0.0000 C   0  0  0  0  0  0  0  0  0  0  0  0
    2.8660    2.7500    0.0000 C   0  0  0  0  0  0  0  0  0  0  0  0
    3.7320    0.2500    0.0000 C   0  0  0  0  0  0  0  0  0  0  0  0
    5.4641    1.2500    0.0000 C   0  0  0  0  0  0  0  0  0  0  0  0
    2.0000    3.2500    0.0000 C   0  0  0  0  0  0  0  0  0  0  0  0
    3.7320    3.2500    0.0000 C   0  0  0  0  0  0  0  0  0  0  0  0
    6.3301    1.7500    0.0000 C   0  0  0  0  0  0  0  0  0  0  0  0
    2.8660   -1.2500    0.0000 C   0  0  0  0  0  0  0  0  0  0  0  0
    2.0000    4.2500    0.0000 C   0  0  0  0  0  0  0  0  0  0  0  0
    3.7320    4.2500    0.0000 C   0  0  0  0  0  0  0  0  0  0  0  0
    2.8660    4.7500    0.0000 C   0  0  0  0  0  0  0  0  0  0  0  0
    3.7320   -1.7500    0.0000 C   0  0  0  0  0  0  0  0  0  0  0  0
    2.0000   -1.7500    0.0000 C   0  0  0  0  0  0  0  0  0  0  0  0
    8.0622    1.7500    0.0000 C   0  0  0  0  0  0  0  0  0  0  0  0
    8.9282    1.2500    0.0000 C   0  0  0  0  0  0  0  0  0  0  0  0
    3.7320   -2.7500    0.0000 C   0  0  0  0  0  0  0  0  0  0  0  0
    2.0000   -2.7500    0.0000 C   0  0  0  0  0  0  0  0  0  0  0  0
    2.8660   -3.2500    0.0000 C   0  0  0  0  0  0  0  0  0  0  0  0
   11.5263    1.7500    0.0000 C   0  0  0  0  0  0  0  0  0  0  0  0
   10.6603    1.2500    0.0000 C   0  0  0  0  0  0  0  0  0  0  0  0
   12.3923    1.2500    0.0000 C   0  0  0  0  0  0  0  0  0  0  0  0
   13.2583    1.7500    0.0000 C   0  0  0  0  0  0  0  0  0  0  0  0
    3.7320    1.8700    0.0000 H   0  0  0  0  0  0  0  0  0  0  0  0
    2.2554    1.8577    0.0000 H   0  0  0  0  0  0  0  0  0  0  0  0
    2.6540    1.1674    0.0000 H   0  0  0  0  0  0  0  0  0  0  0  0
    4.5981    2.3700    0.0000 H   0  0  0  0  0  0  0  0  0  0  0  0
    1.4631    2.9400    0.0000 H   0  0  0  0  0  0  0  0  0  0  0  0
    4.2690    2.9400    0.0000 H   0  0  0  0  0  0  0  0  0  0  0  0
    2.3291    0.0600    0.0000 H   0  0  0  0  0  0  0  0  0  0  0  0
    6.7287    2.2250    0.0000 H   0  0  0  0  0  0  0  0  0  0  0  0
    5.9316    2.2250    0.0000 H   0  0  0  0  0  0  0  0  0  0  0  0
    1.4631    4.5600    0.0000 H   0  0  0  0  0  0  0  0  0  0  0  0
    4.2690    4.5600    0.0000 H   0  0  0  0  0  0  0  0  0  0  0  0
    7.1962    0.6300    0.0000 H   0  0  0  0  0  0  0  0  0  0  0  0
    2.8660    5.3700    0.0000 H   0  0  0  0  0  0  0  0  0  0  0  0
    4.2690   -1.4400    0.0000 H   0  0  0  0  0  0  0  0  0  0  0  0
    1.4631   -1.4400    0.0000 H   0  0  0  0  0  0  0  0  0  0  0  0
    8.5297    0.7751    0.0000 H   0  0  0  0  0  0  0  0  0  0  0  0
    9.3267    0.7751    0.0000 H   0  0  0  0  0  0  0  0  0  0  0  0
    4.2690   -3.0600    0.0000 H   0  0  0  0  0  0  0  0  0  0  0  0
    1.4631   -3.0600    0.0000 H   0  0  0  0  0  0  0  0  0  0  0  0
    9.7942    2.3700    0.0000 H   0  0  0  0  0  0  0  0  0  0  0  0
   11.9248    2.2250    0.0000 H   0  0  0  0  0  0  0  0  0  0  0  0
   11.1278    2.2250    0.0000 H   0  0  0  0  0  0  0  0  0  0  0  0
   11.9938    0.7751    0.0000 H   0  0  0  0  0  0  0  0  0  0  0  0
   12.7908    0.7751    0.0000 H   0  0  0  0  0  0  0  0  0  0  0  0
   14.6613    1.5600    0.0000 H   0  0  0  0  0  0  0  0  0  0  0  0
  1 17  2  0  0  0  0
  2 18  2  0  0  0  0
  3 28  2  0  0  0  0
  4 34  2  0  0  0  0
  5 36  1  0  0  0  0
  5 61  1  0  0  0  0
  6 13  1  0  0  0  0
  7 13  2  0  0  0  0
  8 36  2  0  0  0  0
  9 14  1  0  0  0  0
  9 18  1  0  0  0  0
  9 40  1  0  0  0  0
 10 17  1  0  0  0  0
 10 22  1  0  0  0  0
 10 43  1  0  0  0  0
 11 21  1  0  0  0  0
 11 28  1  0  0  0  0
 11 48  1  0  0  0  0
 12 29  1  0  0  0  0
 12 34  1  0  0  0  0
 12 56  1  0  0  0  0
 13 32  1  0  0  0  0
 14 15  1  0  0  0  0
 14 17  1  0  0  0  0
 14 37  1  0  0  0  0
 15 16  1  0  0  0  0
 15 38  1  0  0  0  0
 15 39  1  0  0  0  0
 16 19  2  0  0  0  0
 16 20  1  0  0  0  0
 18 21  1  0  0  0  0
 19 23  1  0  0  0  0
 19 41  1  0  0  0  0
 20 24  2  0  0  0  0
 20 42  1  0  0  0  0
 21 44  1  0  0  0  0
 21 45  1  0  0  0  0
 22 26  2  0  0  0  0
 22 27  1  0  0  0  0
 23 25  2  0  0  0  0
 23 46  1  0  0  0  0
 24 25  1  0  0  0  0
 24 47  1  0  0  0  0
 25 49  1  0  0  0  0
 26 30  1  0  0  0  0
 26 50  1  0  0  0  0
 27 31  2  0  0  0  0
 27 51  1  0  0  0  0
 28 29  1  0  0  0  0
 29 52  1  0  0  0  0
 29 53  1  0  0  0  0
 30 32  2  0  0  0  0
 30 54  1  0  0  0  0
 31 32  1  0  0  0  0
 31 55  1  0  0  0  0
 33 34  1  0  0  0  0
 33 35  1  0  0  0  0
 33 57  1  0  0  0  0
 33 58  1  0  0  0  0
 35 36  1  0  0  0  0
 35 59  1  0  0  0  0
 35 60  1  0  0  0  0
M  CHG  2   6  -1  13   1
M  END
> <PUBCHEM_COMPOUND_CID>
4052643

> <PUBCHEM_COMPOUND_CANONICALIZED>
1

> <PUBCHEM_CACTVS_COMPLEXITY>
801

> <PUBCHEM_CACTVS_HBOND_ACCEPTOR>
8

> <PUBCHEM_CACTVS_HBOND_DONOR>
5

> <PUBCHEM_CACTVS_ROTATABLE_BOND>
12

> <PUBCHEM_CACTVS_SUBSKEYS>
AAADceB7vAAAAAAAAAAAAAAAAAAAAAAAAAAwYAAAAAAAAAABQAAAHgAUCAAADCjBmAQwyILQQgCJAiXSWwCCAAAhAgAoiIGIZIoIYDLAkbGUYAhklgDIyAc/iICOAACAAAAAAAAAAQAAAAAAAAAAAAAAAA==

> <PUBCHEM_IUPAC_OPENEYE_NAME>
4-[[2-[[2-[[1-benzyl-2-(4-nitroanilino)-2-oxo-ethyl]amino]-2-oxo-ethyl]amino]-2-oxo-ethyl]amino]-4-oxo-butanoic acid

> <PUBCHEM_IUPAC_CAS_NAME>
4-[[2-[[2-[[1-(4-nitroanilino)-1-oxo-3-phenylpropan-2-yl]amino]-2-oxoethyl]amino]-2-oxoethyl]amino]-4-oxobutanoic acid

> <PUBCHEM_IUPAC_NAME_MARKUP>
4-[[2-[[2-[[1-(4-nitroanilino)-1-oxo-3-phenylpropan-2-yl]amino]-2-oxoethyl]amino]-2-oxoethyl]amino]-4-oxobutanoic acid

> <PUBCHEM_IUPAC_NAME>
4-[[2-[[2-[[1-(4-nitroanilino)-1-oxo-3-phenylpropan-2-yl]amino]-2-oxoethyl]amino]-2-oxoethyl]amino]-4-oxobutanoic acid

> <PUBCHEM_IUPAC_SYSTEMATIC_NAME>
4-[[2-[[2-[[1-[(4-nitrophenyl)amino]-1-oxidanylidene-3-phenyl-propan-2-yl]amino]-2-oxidanylidene-ethyl]amino]-2-oxidanylidene-ethyl]amino]-4-oxidanylidene-butanoic acid

> <PUBCHEM_IUPAC_TRADITIONAL_NAME>
4-[[2-[[2-[[1-benzyl-2-keto-2-(4-nitroanilino)ethyl]amino]-2-keto-ethyl]amino]-2-keto-ethyl]amino]-4-keto-butyric acid

> <PUBCHEM_IUPAC_INCHI>
InChI=1S/C23H25N5O8/c29-19(10-11-22(32)33)24-13-20(30)25-14-21(31)27-18(12-15-4-2-1-3-5-15)23(34)26-16-6-8-17(9-7-16)28(35)36/h1-9,18H,10-14H2,(H,24,29)(H,25,30)(H,26,34)(H,27,31)(H,32,33)

> <PUBCHEM_IUPAC_INCHIKEY>
CFYIUBWVKZQDOG-UHFFFAOYSA-N

> <PUBCHEM_XLOGP3_AA>
0.4

> <PUBCHEM_EXACT_MASS>
499.17031277

> <PUBCHEM_MOLECULAR_FORMULA>
C23H25N5O8

> <PUBCHEM_MOLECULAR_WEIGHT>
499.5

> <PUBCHEM_OPENEYE_CAN_SMILES>
C1=CC=C(C=C1)CC(C(=O)NC2=CC=C(C=C2)[N+](=O)[O-])NC(=O)CNC(=O)CNC(=O)CCC(=O)O

> <PUBCHEM_OPENEYE_ISO_SMILES>
C1=CC=C(C=C1)CC(C(=O)NC2=CC=C(C=C2)[N+](=O)[O-])NC(=O)CNC(=O)CNC(=O)CCC(=O)O

> <PUBCHEM_CACTVS_TPSA>
200

> <PUBCHEM_MONOISOTOPIC_WEIGHT>
499.17031277

> <PUBCHEM_TOTAL_CHARGE>
0

> <PUBCHEM_HEAVY_ATOM_COUNT>
36

> <PUBCHEM_ATOM_DEF_STEREO_COUNT>
0

> <PUBCHEM_ATOM_UDEF_STEREO_COUNT>
1

> <PUBCHEM_BOND_DEF_STEREO_COUNT>
0

> <PUBCHEM_BOND_UDEF_STEREO_COUNT>
0

> <PUBCHEM_ISOTOPIC_ATOM_COUNT>
0

> <PUBCHEM_COMPONENT_COUNT>
1

> <PUBCHEM_CACTVS_TAUTO_COUNT>
24

> <PUBCHEM_COORDINATE_TYPE>
1
5
255

> <PUBCHEM_BONDANNOTATIONS>
14  15  3
16  19  8
16  20  8
19  23  8
20  24  8
22  26  8
22  27  8
23  25  8
24  25  8
26  30  8
27  31  8
30  32  8
31  32  8

$$$$
