91820602
  -OEChem-12122308402D

 45 45  0     0  0  0  0  0  0999 V2000
    3.5000    0.0000    0.0000 Br  0  0  0  0  0  0  0  0  0  0  0  0
    7.3934    2.6250    0.0000 O   0  0  0  0  0  0  0  0  0  0  0  0
    7.7506    4.3199    0.0000 O   0  0  0  0  0  0  0  0  0  0  0  0
    3.2152    7.0458    0.0000 N   0  0  0  0  0  0  0  0  0  0  0  0
    3.2152    8.6552    0.0000 C   0  0  0  0  0  0  0  0  0  0  0  0
    2.2690    8.3505    0.0000 C   0  0  0  0  0  0  0  0  0  0  0  0
    3.7988    7.8505    0.0000 C   0  0  0  0  0  0  0  0  0  0  0  0
    2.2690    7.3505    0.0000 C   0  0  0  0  0  0  0  0  0  0  0  0
    3.5259    6.0952    0.0000 C   0  0  0  0  0  0  0  0  0  0  0  0
    4.0252    9.2416    0.0000 C   0  0  0  0  0  0  0  0  0  0  0  0
    2.9078    9.6068    0.0000 C   0  0  0  0  0  0  0  0  0  0  0  0
    4.5044    5.8890    0.0000 C   0  0  0  0  0  0  0  0  0  0  0  0
    1.4030    8.8505    0.0000 C   0  0  0  0  0  0  0  0  0  0  0  0
    1.4030    6.8505    0.0000 C   0  0  0  0  0  0  0  0  0  0  0  0
    4.8150    4.9385    0.0000 C   0  0  0  0  0  0  0  0  0  0  0  0
    4.7988    7.8505    0.0000 C   0  0  0  0  0  0  0  0  0  0  0  0
    0.5369    8.3505    0.0000 C   0  0  0  0  0  0  0  0  0  0  0  0
    5.7935    4.7323    0.0000 C   0  0  0  0  0  0  0  0  0  0  0  0
    0.5369    7.3505    0.0000 C   0  0  0  0  0  0  0  0  0  0  0  0
    6.1042    3.7818    0.0000 C   0  0  0  0  0  0  0  0  0  0  0  0
    7.0827    3.5756    0.0000 C   0  0  0  0  0  0  0  0  0  0  0  0
    2.9120    6.0079    0.0000 H   0  0  0  0  0  0  0  0  0  0  0  0
    3.5053    5.4756    0.0000 H   0  0  0  0  0  0  0  0  0  0  0  0
    4.3888    8.7394    0.0000 H   0  0  0  0  0  0  0  0  0  0  0  0
    4.5275    9.6052    0.0000 H   0  0  0  0  0  0  0  0  0  0  0  0
    3.6617    9.7438    0.0000 H   0  0  0  0  0  0  0  0  0  0  0  0
    3.4978    9.7974    0.0000 H   0  0  0  0  0  0  0  0  0  0  0  0
    2.7173   10.1968    0.0000 H   0  0  0  0  0  0  0  0  0  0  0  0
    2.3178    9.4163    0.0000 H   0  0  0  0  0  0  0  0  0  0  0  0
    5.1182    5.9764    0.0000 H   0  0  0  0  0  0  0  0  0  0  0  0
    4.5249    6.5087    0.0000 H   0  0  0  0  0  0  0  0  0  0  0  0
    1.4030    9.4705    0.0000 H   0  0  0  0  0  0  0  0  0  0  0  0
    1.4030    6.2305    0.0000 H   0  0  0  0  0  0  0  0  0  0  0  0
    4.2012    4.8512    0.0000 H   0  0  0  0  0  0  0  0  0  0  0  0
    4.7945    4.3189    0.0000 H   0  0  0  0  0  0  0  0  0  0  0  0
    5.1088    7.3136    0.0000 H   0  0  0  0  0  0  0  0  0  0  0  0
    5.1088    8.3874    0.0000 H   0  0  0  0  0  0  0  0  0  0  0  0
    6.4074    4.8196    0.0000 H   0  0  0  0  0  0  0  0  0  0  0  0
    5.8141    5.3520    0.0000 H   0  0  0  0  0  0  0  0  0  0  0  0
    0.0000    8.6605    0.0000 H   0  0  0  0  0  0  0  0  0  0  0  0
    0.0000    7.0405    0.0000 H   0  0  0  0  0  0  0  0  0  0  0  0
    5.4904    3.6944    0.0000 H   0  0  0  0  0  0  0  0  0  0  0  0
    6.0836    3.1621    0.0000 H   0  0  0  0  0  0  0  0  0  0  0  0
    8.0000    2.4972    0.0000 H   0  0  0  0  0  0  0  0  0  0  0  0
    4.5000    0.0000    0.0000 H   0  0  0  0  0  0  0  0  0  0  0  0
  1 45  1  0  0  0  0
  2 21  1  0  0  0  0
  2 44  1  0  0  0  0
  3 21  2  0  0  0  0
  4  7  1  0  0  0  0
  4  8  1  0  0  0  0
  4  9  1  0  0  0  0
  5  6  1  0  0  0  0
  5  7  1  0  0  0  0
  5 10  1  0  0  0  0
  5 11  1  0  0  0  0
  6  8  1  0  0  0  0
  6 13  2  0  0  0  0
  7 16  2  0  0  0  0
  8 14  2  0  0  0  0
  9 12  1  0  0  0  0
  9 22  1  0  0  0  0
  9 23  1  0  0  0  0
 10 24  1  0  0  0  0
 10 25  1  0  0  0  0
 10 26  1  0  0  0  0
 11 27  1  0  0  0  0
 11 28  1  0  0  0  0
 11 29  1  0  0  0  0
 12 15  1  0  0  0  0
 12 30  1  0  0  0  0
 12 31  1  0  0  0  0
 13 17  1  0  0  0  0
 13 32  1  0  0  0  0
 14 19  1  0  0  0  0
 14 33  1  0  0  0  0
 15 18  1  0  0  0  0
 15 34  1  0  0  0  0
 15 35  1  0  0  0  0
 16 36  1  0  0  0  0
 16 37  1  0  0  0  0
 17 19  2  0  0  0  0
 17 40  1  0  0  0  0
 18 20  1  0  0  0  0
 18 38  1  0  0  0  0
 18 39  1  0  0  0  0
 19 41  1  0  0  0  0
 20 21  1  0  0  0  0
 20 42  1  0  0  0  0
 20 43  1  0  0  0  0
M  END
> <PUBCHEM_COMPOUND_CID>
91820602

> <PUBCHEM_COMPOUND_CANONICALIZED>
1

> <PUBCHEM_CACTVS_COMPLEXITY>
375

> <PUBCHEM_CACTVS_HBOND_ACCEPTOR>
3

> <PUBCHEM_CACTVS_HBOND_DONOR>
2

> <PUBCHEM_CACTVS_ROTATABLE_BOND>
6

> <PUBCHEM_CACTVS_SUBSKEYS>
AAADceB6MAAAEAAAAAAAAAAAAAAAAWAAAAAwAAAAAAAAAFgBAAAAHgAACAAADgjBmAQyyIMAAgCIAiTSSACCAAAhAgAIiAEIZIgIIDLAkZGEYAhkgADIyAeYyMAPgAAAAAACAAAAAAAAAAQAAAAAAAAAAA==

> <PUBCHEM_IUPAC_OPENEYE_NAME>
6-(3,3-dimethyl-2-methylene-indolin-1-yl)hexanoic acid;hydrobromide

> <PUBCHEM_IUPAC_CAS_NAME>
6-(3,3-dimethyl-2-methylene-1-indolyl)hexanoic acid;hydrobromide

> <PUBCHEM_IUPAC_NAME_MARKUP>
6-(3,3-dimethyl-2-methylideneindol-1-yl)hexanoic acid;hydrobromide

> <PUBCHEM_IUPAC_NAME>
6-(3,3-dimethyl-2-methylideneindol-1-yl)hexanoic acid;hydrobromide

> <PUBCHEM_IUPAC_SYSTEMATIC_NAME>
6-(3,3-dimethyl-2-methylidene-indol-1-yl)hexanoic acid;hydrobromide

> <PUBCHEM_IUPAC_TRADITIONAL_NAME>
6-(3,3-dimethyl-2-methylene-indolin-1-yl)hexanoic acid;hydrobromide

> <PUBCHEM_IUPAC_INCHI>
InChI=1S/C17H23NO2.BrH/c1-13-17(2,3)14-9-6-7-10-15(14)18(13)12-8-4-5-11-16(19)20;/h6-7,9-10H,1,4-5,8,11-12H2,2-3H3,(H,19,20);1H

> <PUBCHEM_IUPAC_INCHIKEY>
SVMKEDBUSSWSFY-UHFFFAOYSA-N

> <PUBCHEM_EXACT_MASS>
353.09904

> <PUBCHEM_MOLECULAR_FORMULA>
C17H24BrNO2

> <PUBCHEM_MOLECULAR_WEIGHT>
354.3

> <PUBCHEM_OPENEYE_CAN_SMILES>
CC1(C(=C)N(C2=CC=CC=C21)CCCCCC(=O)O)C.Br

> <PUBCHEM_OPENEYE_ISO_SMILES>
CC1(C(=C)N(C2=CC=CC=C21)CCCCCC(=O)O)C.Br

> <PUBCHEM_CACTVS_TPSA>
40.5

> <PUBCHEM_MONOISOTOPIC_WEIGHT>
353.09904

> <PUBCHEM_TOTAL_CHARGE>
0

> <PUBCHEM_HEAVY_ATOM_COUNT>
21

> <PUBCHEM_ATOM_DEF_STEREO_COUNT>
0

> <PUBCHEM_ATOM_UDEF_STEREO_COUNT>
0

> <PUBCHEM_BOND_DEF_STEREO_COUNT>
0

> <PUBCHEM_BOND_UDEF_STEREO_COUNT>
0

> <PUBCHEM_ISOTOPIC_ATOM_COUNT>
0

> <PUBCHEM_COMPONENT_COUNT>
2

> <PUBCHEM_CACTVS_TAUTO_COUNT>
-1

> <PUBCHEM_COORDINATE_TYPE>
1
5
255

> <PUBCHEM_BONDANNOTATIONS>
13  17  8
14  19  8
17  19  8
6  13  8
6  8  8
8  14  8

$$$$
