77910626
  -OEChem-12122309452D

 96 97  0     1  0  0  0  0  0999 V2000
   11.0000    0.8375    0.0000 O   0  0  0  0  0  0  0  0  0  0  0  0
   12.3660   -0.5285    0.0000 O   0  0  0  0  0  0  0  0  0  0  0  0
   14.0981   -1.5285    0.0000 O   0  0  0  0  0  0  0  0  0  0  0  0
    9.5000   -1.7606    0.0000 O   0  0  0  0  0  0  0  0  0  0  0  0
   15.8301   -1.5285    0.0000 O   0  0  0  0  0  0  0  0  0  0  0  0
    8.5000    1.7035    0.0000 O   0  0  0  0  0  0  0  0  0  0  0  0
   12.3660   -3.5285    0.0000 O   0  0  0  0  0  0  0  0  0  0  0  0
   14.0981   -4.5285    0.0000 O   0  0  0  0  0  0  0  0  0  0  0  0
   11.0000    2.5695    0.0000 O   0  0  0  0  0  0  0  0  0  0  0  0
   12.3660    1.4715    0.0000 O   0  0  0  0  0  0  0  0  0  0  0  0
   13.2321   -0.0285    0.0000 O   0  0  0  0  0  0  0  0  0  0  0  0
   10.0000    4.3016    0.0000 O   0  0  0  0  0  0  0  0  0  0  0  0
    8.5000   -1.7606    0.0000 O   0  0  0  0  0  0  0  0  0  0  0  0
   16.6962   -2.0285    0.0000 O   0  0  0  0  0  0  0  0  0  0  0  0
   17.5622    1.4715    0.0000 O   0  0  0  0  0  0  0  0  0  0  0  0
   15.8301    1.4715    0.0000 O   0  0  0  0  0  0  0  0  0  0  0  0
    5.0000   -2.6266    0.0000 O   0  0  0  0  0  0  0  0  0  0  0  0
    5.0000   -0.8946    0.0000 O   0  0  0  0  0  0  0  0  0  0  0  0
    2.5000   -3.4926    0.0000 O   0  0  0  0  0  0  0  0  0  0  0  0
    8.5000   -0.0285    0.0000 N   0  0  0  0  0  0  0  0  0  0  0  0
   15.8301   -3.5285    0.0000 N   0  0  0  0  0  0  0  0  0  0  0  0
    6.5000   -1.7606    0.0000 N   0  0  0  0  0  0  0  0  0  0  0  0
   17.5622   -0.5285    0.0000 N   0  0  0  0  0  0  0  0  0  0  0  0
    9.5000   -0.0285    0.0000 C   0  0  3  0  0  0  0  0  0  0  0  0
   10.0000    0.8375    0.0000 C   0  0  3  0  0  0  0  0  0  0  0  0
   10.0000   -0.8946    0.0000 C   0  0  3  0  0  0  0  0  0  0  0  0
   11.5000   -0.0285    0.0000 C   0  0  3  0  0  0  0  0  0  0  0  0
   11.0000   -0.8946    0.0000 C   0  0  0  0  0  0  0  0  0  0  0  0
    9.5000    1.7035    0.0000 C   0  0  3  0  0  0  0  0  0  0  0  0
   13.2321   -2.0285    0.0000 C   0  0  3  0  0  0  0  0  0  0  0  0
   13.2321   -3.0285    0.0000 C   0  0  3  0  0  0  0  0  0  0  0  0
   14.0981   -3.5285    0.0000 C   0  0  3  0  0  0  0  0  0  0  0  0
   14.9641   -3.0285    0.0000 C   0  0  3  0  0  0  0  0  0  0  0  0
   12.3660   -1.5285    0.0000 C   0  0  0  0  0  0  0  0  0  0  0  0
   14.9641   -2.0285    0.0000 C   0  0  3  0  0  0  0  0  0  0  0  0
   10.0000    2.5695    0.0000 C   0  0  3  0  0  0  0  0  0  0  0  0
   12.3660    0.4715    0.0000 C   0  0  0  0  0  0  0  0  0  0  0  0
    9.5000    3.4356    0.0000 C   0  0  0  0  0  0  0  0  0  0  0  0
    8.0000   -0.8946    0.0000 C   0  0  0  0  0  0  0  0  0  0  0  0
   15.8301   -0.5285    0.0000 C   0  0  3  0  0  0  0  0  0  0  0  0
   16.6962   -3.0285    0.0000 C   0  0  0  0  0  0  0  0  0  0  0  0
    7.0000   -0.8946    0.0000 C   0  0  0  0  0  0  0  0  0  0  0  0
   16.6962   -0.0285    0.0000 C   0  0  3  0  0  0  0  0  0  0  0  0
   14.9641   -0.0285    0.0000 C   0  0  0  0  0  0  0  0  0  0  0  0
   17.5622   -3.5285    0.0000 C   0  0  0  0  0  0  0  0  0  0  0  0
   16.6962    0.9715    0.0000 C   0  0  0  0  0  0  0  0  0  0  0  0
    5.5000   -1.7606    0.0000 C   0  0  0  0  0  0  0  0  0  0  0  0
    4.0000   -2.6266    0.0000 C   0  0  0  0  0  0  0  0  0  0  0  0
    3.5000   -3.4926    0.0000 C   0  0  0  0  0  0  0  0  0  0  0  0
    2.0000   -4.3587    0.0000 C   0  0  0  0  0  0  0  0  0  0  0  0
    9.1900    0.5084    0.0000 H   0  0  0  0  0  0  0  0  0  0  0  0
   10.3100    1.3744    0.0000 H   0  0  0  0  0  0  0  0  0  0  0  0
    9.3800   -0.8946    0.0000 H   0  0  0  0  0  0  0  0  0  0  0  0
   10.8923   -1.5051    0.0000 H   0  0  0  0  0  0  0  0  0  0  0  0
   11.5826   -1.1066    0.0000 H   0  0  0  0  0  0  0  0  0  0  0  0
    9.1900    2.2405    0.0000 H   0  0  0  0  0  0  0  0  0  0  0  0
   13.2321   -1.4085    0.0000 H   0  0  0  0  0  0  0  0  0  0  0  0
   13.2321   -3.6485    0.0000 H   0  0  0  0  0  0  0  0  0  0  0  0
   14.6350   -3.8385    0.0000 H   0  0  0  0  0  0  0  0  0  0  0  0
   15.5010   -2.7185    0.0000 H   0  0  0  0  0  0  0  0  0  0  0  0
   11.7554   -1.4209    0.0000 H   0  0  0  0  0  0  0  0  0  0  0  0
   12.1540   -2.1111    0.0000 H   0  0  0  0  0  0  0  0  0  0  0  0
   14.9641   -1.4085    0.0000 H   0  0  0  0  0  0  0  0  0  0  0  0
    8.1900    0.5084    0.0000 H   0  0  0  0  0  0  0  0  0  0  0  0
   10.3100    2.0326    0.0000 H   0  0  0  0  0  0  0  0  0  0  0  0
    9.8100   -2.2975    0.0000 H   0  0  0  0  0  0  0  0  0  0  0  0
   15.8301   -4.1485    0.0000 H   0  0  0  0  0  0  0  0  0  0  0  0
    9.0250    3.8341    0.0000 H   0  0  0  0  0  0  0  0  0  0  0  0
    9.0250    3.0370    0.0000 H   0  0  0  0  0  0  0  0  0  0  0  0
    8.1900    2.2405    0.0000 H   0  0  0  0  0  0  0  0  0  0  0  0
   11.8291   -3.2185    0.0000 H   0  0  0  0  0  0  0  0  0  0  0  0
   13.5611   -4.8385    0.0000 H   0  0  0  0  0  0  0  0  0  0  0  0
   16.3671   -0.8385    0.0000 H   0  0  0  0  0  0  0  0  0  0  0  0
   11.3100    3.1065    0.0000 H   0  0  0  0  0  0  0  0  0  0  0  0
    7.1077   -0.2840    0.0000 H   0  0  0  0  0  0  0  0  0  0  0  0
    6.4174   -0.6825    0.0000 H   0  0  0  0  0  0  0  0  0  0  0  0
   12.9030    1.7815    0.0000 H   0  0  0  0  0  0  0  0  0  0  0  0
   17.2331    0.2815    0.0000 H   0  0  0  0  0  0  0  0  0  0  0  0
   15.2741    0.5084    0.0000 H   0  0  0  0  0  0  0  0  0  0  0  0
   14.4272    0.2815    0.0000 H   0  0  0  0  0  0  0  0  0  0  0  0
   14.6541   -0.5655    0.0000 H   0  0  0  0  0  0  0  0  0  0  0  0
    9.6900    4.8385    0.0000 H   0  0  0  0  0  0  0  0  0  0  0  0
   17.2522   -4.0655    0.0000 H   0  0  0  0  0  0  0  0  0  0  0  0
   18.0991   -3.8385    0.0000 H   0  0  0  0  0  0  0  0  0  0  0  0
   17.8722   -2.9916    0.0000 H   0  0  0  0  0  0  0  0  0  0  0  0
    6.8100   -2.2975    0.0000 H   0  0  0  0  0  0  0  0  0  0  0  0
   18.0991   -0.2185    0.0000 H   0  0  0  0  0  0  0  0  0  0  0  0
   17.5622   -1.1485    0.0000 H   0  0  0  0  0  0  0  0  0  0  0  0
   17.5622    2.0915    0.0000 H   0  0  0  0  0  0  0  0  0  0  0  0
    4.1077   -2.0160    0.0000 H   0  0  0  0  0  0  0  0  0  0  0  0
    3.4174   -2.4146    0.0000 H   0  0  0  0  0  0  0  0  0  0  0  0
    3.3923   -4.1032    0.0000 H   0  0  0  0  0  0  0  0  0  0  0  0
    4.0826   -3.7047    0.0000 H   0  0  0  0  0  0  0  0  0  0  0  0
    1.4631   -4.0487    0.0000 H   0  0  0  0  0  0  0  0  0  0  0  0
    1.6900   -4.8956    0.0000 H   0  0  0  0  0  0  0  0  0  0  0  0
    2.5369   -4.6687    0.0000 H   0  0  0  0  0  0  0  0  0  0  0  0
  1 25  1  0  0  0  0
  1 27  1  0  0  0  0
  2 27  1  0  0  0  0
  2 34  1  0  0  0  0
  3 30  1  0  0  0  0
  3 35  1  0  0  0  0
  4 26  1  0  0  0  0
  4 66  1  0  0  0  0
  5 35  1  0  0  0  0
  5 40  1  0  0  0  0
  6 29  1  0  0  0  0
  6 70  1  0  0  0  0
  7 31  1  0  0  0  0
  7 71  1  0  0  0  0
  8 32  1  0  0  0  0
  8 72  1  0  0  0  0
  9 36  1  0  0  0  0
  9 74  1  0  0  0  0
 10 37  1  0  0  0  0
 10 77  1  0  0  0  0
 11 37  2  0  0  0  0
 12 38  1  0  0  0  0
 12 82  1  0  0  0  0
 13 39  2  0  0  0  0
 14 41  2  0  0  0  0
 15 46  1  0  0  0  0
 15 89  1  0  0  0  0
 16 46  2  0  0  0  0
 17 47  1  0  0  0  0
 17 48  1  0  0  0  0
 18 47  2  0  0  0  0
 19 49  1  0  0  0  0
 19 50  1  0  0  0  0
 20 24  1  0  0  0  0
 20 39  1  0  0  0  0
 20 64  1  0  0  0  0
 21 33  1  0  0  0  0
 21 41  1  0  0  0  0
 21 67  1  0  0  0  0
 22 42  1  0  0  0  0
 22 47  1  0  0  0  0
 22 86  1  0  0  0  0
 23 43  1  0  0  0  0
 23 87  1  0  0  0  0
 23 88  1  0  0  0  0
 24 25  1  0  0  0  0
 24 26  1  0  0  0  0
 24 51  1  0  0  0  0
 25 29  1  0  0  0  0
 25 52  1  0  0  0  0
 26 28  1  0  0  0  0
 26 53  1  0  0  0  0
 27 28  1  0  0  0  0
 27 37  1  0  0  0  0
 28 54  1  0  0  0  0
 28 55  1  0  0  0  0
 29 36  1  0  0  0  0
 29 56  1  0  0  0  0
 30 31  1  0  0  0  0
 30 34  1  0  0  0  0
 30 57  1  0  0  0  0
 31 32  1  0  0  0  0
 31 58  1  0  0  0  0
 32 33  1  0  0  0  0
 32 59  1  0  0  0  0
 33 35  1  0  0  0  0
 33 60  1  0  0  0  0
 34 61  1  0  0  0  0
 34 62  1  0  0  0  0
 35 63  1  0  0  0  0
 36 38  1  0  0  0  0
 36 65  1  0  0  0  0
 38 68  1  0  0  0  0
 38 69  1  0  0  0  0
 39 42  1  0  0  0  0
 40 43  1  0  0  0  0
 40 44  1  0  0  0  0
 40 73  1  0  0  0  0
 41 45  1  0  0  0  0
 42 75  1  0  0  0  0
 42 76  1  0  0  0  0
 43 46  1  0  0  0  0
 43 78  1  0  0  0  0
 44 79  1  0  0  0  0
 44 80  1  0  0  0  0
 44 81  1  0  0  0  0
 45 83  1  0  0  0  0
 45 84  1  0  0  0  0
 45 85  1  0  0  0  0
 48 49  1  0  0  0  0
 48 90  1  0  0  0  0
 48 91  1  0  0  0  0
 49 92  1  0  0  0  0
 49 93  1  0  0  0  0
 50 94  1  0  0  0  0
 50 95  1  0  0  0  0
 50 96  1  0  0  0  0
M  END
> <PUBCHEM_COMPOUND_CID>
77910626

> <PUBCHEM_COMPOUND_CANONICALIZED>
1

> <PUBCHEM_CACTVS_COMPLEXITY>
1170

> <PUBCHEM_CACTVS_HBOND_ACCEPTOR>
20

> <PUBCHEM_CACTVS_HBOND_DONOR>
12

> <PUBCHEM_CACTVS_ROTATABLE_BOND>
19

> <PUBCHEM_CACTVS_SUBSKEYS>
AAADcfB7vgAAAAAAAAAAAAAAAAAAAAAAAAAkSAAAAAAAAAAAAAAAHgAQCAAACDzxgAcCCALABgAIAAGQGAIAAAAAAAAAAIHIAAETUBYAgCQ/QAAHNgCXAAH6+a+QAAAAAAAAAAAAAAAAAAAAAAAAAAAAAA==

> <PUBCHEM_IUPAC_OPENEYE_NAME>
2-[[5-acetamido-6-(2-amino-2-carboxy-1-methyl-ethoxy)-3,4-dihydroxy-tetrahydropyran-2-yl]methoxy]-4-hydroxy-5-[[2-(2-methoxyethoxycarbonylamino)acetyl]amino]-6-(1,2,3-trihydroxypropyl)tetrahydropyran-2-carboxylic acid

> <PUBCHEM_IUPAC_CAS_NAME>
2-[[5-acetamido-6-(1-amino-1-carboxypropan-2-yl)oxy-3,4-dihydroxy-2-oxanyl]methoxy]-4-hydroxy-5-[[2-[[2-methoxyethoxy(oxo)methyl]amino]-1-oxoethyl]amino]-6-(1,2,3-trihydroxypropyl)-2-oxanecarboxylic acid

> <PUBCHEM_IUPAC_NAME_MARKUP>
2-[[5-acetamido-6-(1-amino-1-carboxypropan-2-yl)oxy-3,4-dihydroxyoxan-2-yl]methoxy]-4-hydroxy-5-[[2-(2-methoxyethoxycarbonylamino)acetyl]amino]-6-(1,2,3-trihydroxypropyl)oxane-2-carboxylic acid

> <PUBCHEM_IUPAC_NAME>
2-[[5-acetamido-6-(1-amino-1-carboxypropan-2-yl)oxy-3,4-dihydroxyoxan-2-yl]methoxy]-4-hydroxy-5-[[2-(2-methoxyethoxycarbonylamino)acetyl]amino]-6-(1,2,3-trihydroxypropyl)oxane-2-carboxylic acid

> <PUBCHEM_IUPAC_SYSTEMATIC_NAME>
2-[[5-acetamido-6-(3-azanyl-4-oxidanyl-4-oxidanylidene-butan-2-yl)oxy-3,4-bis(oxidanyl)oxan-2-yl]methoxy]-5-[2-(2-methoxyethoxycarbonylamino)ethanoylamino]-4-oxidanyl-6-[1,2,3-tris(oxidanyl)propyl]oxane-2-carboxylic acid

> <PUBCHEM_IUPAC_TRADITIONAL_NAME>
2-[[5-acetamido-6-(2-amino-2-carboxy-1-methyl-ethoxy)-3,4-dihydroxy-tetrahydropyran-2-yl]methoxy]-4-hydroxy-5-[[2-(2-methoxyethoxycarbonylamino)acetyl]amino]-6-(1,2,3-trihydroxypropyl)tetrahydropyran-2-carboxylic acid

> <PUBCHEM_IUPAC_INCHI>
InChI=1S/C27H46N4O19/c1-10(16(28)23(40)41)48-24-18(30-11(2)33)21(39)20(38)14(49-24)9-47-27(25(42)43)6-12(34)17(22(50-27)19(37)13(35)8-32)31-15(36)7-29-26(44)46-5-4-45-3/h10,12-14,16-22,24,32,34-35,37-39H,4-9,28H2,1-3H3,(H,29,44)(H,30,33)(H,31,36)(H,40,41)(H,42,43)

> <PUBCHEM_IUPAC_INCHIKEY>
GAQMWPRWVIGRRV-UHFFFAOYSA-N

> <PUBCHEM_XLOGP3_AA>
-8.6

> <PUBCHEM_EXACT_MASS>
730.27562525

> <PUBCHEM_MOLECULAR_FORMULA>
C27H46N4O19

> <PUBCHEM_MOLECULAR_WEIGHT>
730.7

> <PUBCHEM_OPENEYE_CAN_SMILES>
CC(C(C(=O)O)N)OC1C(C(C(C(O1)COC2(CC(C(C(O2)C(C(CO)O)O)NC(=O)CNC(=O)OCCOC)O)C(=O)O)O)O)NC(=O)C

> <PUBCHEM_OPENEYE_ISO_SMILES>
CC(C(C(=O)O)N)OC1C(C(C(C(O1)COC2(CC(C(C(O2)C(C(CO)O)O)NC(=O)CNC(=O)OCCOC)O)C(=O)O)O)O)NC(=O)C

> <PUBCHEM_CACTVS_TPSA>
365

> <PUBCHEM_MONOISOTOPIC_WEIGHT>
730.27562525

> <PUBCHEM_TOTAL_CHARGE>
0

> <PUBCHEM_HEAVY_ATOM_COUNT>
50

> <PUBCHEM_ATOM_DEF_STEREO_COUNT>
0

> <PUBCHEM_ATOM_UDEF_STEREO_COUNT>
13

> <PUBCHEM_BOND_DEF_STEREO_COUNT>
0

> <PUBCHEM_BOND_UDEF_STEREO_COUNT>
0

> <PUBCHEM_ISOTOPIC_ATOM_COUNT>
0

> <PUBCHEM_COMPONENT_COUNT>
1

> <PUBCHEM_CACTVS_TAUTO_COUNT>
-1

> <PUBCHEM_COORDINATE_TYPE>
1
5
255

> <PUBCHEM_BONDANNOTATIONS>
25  1  3
24  20  3
33  21  3
43  23  3
27  37  3
30  34  3
26  4  3
40  44  3
35  5  3
29  6  3
31  7  3
32  8  3
36  9  3

$$$$
