91810695
  -OEChem-04222422342D

125128  0     1  0  0  0  0  0999 V2000
   12.3901    2.4356    0.0000 Cl  0  0  0  0  0  0  0  0  0  0  0  0
    5.5168   -4.2609    0.0000 S   0  0  0  0  0  0  0  0  0  0  0  0
    4.6735   -4.7982    0.0000 S   0  0  0  0  0  0  0  0  0  0  0  0
    3.0739   -7.8709    0.0000 S   0  0  0  0  0  0  0  0  0  0  0  0
    7.9307    3.8492    0.0000 O   0  0  0  0  0  0  0  0  0  0  0  0
    7.8289    2.3462    0.0000 O   0  0  0  0  0  0  0  0  0  0  0  0
    6.6474    6.5906    0.0000 O   0  0  0  0  0  0  0  0  0  0  0  0
    8.3794    8.5906    0.0000 O   0  0  0  0  0  0  0  0  0  0  0  0
    9.6681    8.9969    0.0000 O   0  0  0  0  0  0  0  0  0  0  0  0
   10.5550    1.0936    0.0000 O   0  0  0  0  0  0  0  0  0  0  0  0
    5.7814    8.0906    0.0000 O   0  0  0  0  0  0  0  0  0  0  0  0
    8.7596    0.8854    0.0000 O   0  0  0  0  0  0  0  0  0  0  0  0
    5.3424   -0.2647    0.0000 O   0  0  0  0  0  0  0  0  0  0  0  0
   13.5009    3.2111    0.0000 O   0  0  0  0  0  0  0  0  0  0  0  0
    2.2305   -8.4082    0.0000 O   0  0  0  0  0  0  0  0  0  0  0  0
    3.6112   -8.7143    0.0000 O   0  0  0  0  0  0  0  0  0  0  0  0
    2.5366   -7.0275    0.0000 O   0  0  0  0  0  0  0  0  0  0  0  0
    5.6477   -7.2581    0.0000 O   0  0  0  0  0  0  0  0  0  0  0  0
    7.5134    8.0906    0.0000 N   0  0  0  0  0  0  0  0  0  0  0  0
   10.8794    2.7246    0.0000 N   0  0  0  0  0  0  0  0  0  0  0  0
    7.0728   -0.1892    0.0000 N   0  0  0  0  0  0  0  0  0  0  0  0
    4.8479   -8.7944    0.0000 N   0  0  0  0  0  0  0  0  0  0  0  0
    8.9311    3.8494    0.0000 C   0  0  2  0  0  0  0  0  0  0  0  0
    8.4311    4.7155    0.0000 C   0  0  2  0  0  0  0  0  0  0  0  0
    7.5134    5.0906    0.0000 C   0  0  1  0  0  0  0  0  0  0  0  0
    8.6723    2.8835    0.0000 C   0  0  2  0  0  0  0  0  0  0  0  0
    7.5134    6.0906    0.0000 C   0  0  2  0  0  0  0  0  0  0  0  0
    9.9226    3.9800    0.0000 C   0  0  0  0  0  0  0  0  0  0  0  0
    6.5693    4.7609    0.0000 C   0  0  0  0  0  0  0  0  0  0  0  0
    8.3794    6.5906    0.0000 C   0  0  0  0  0  0  0  0  0  0  0  0
    9.1723    2.0175    0.0000 C   0  0  0  0  0  0  0  0  0  0  0  0
    8.3794    7.5906    0.0000 C   0  0  1  0  0  0  0  0  0  0  0  0
    9.2455    8.0906    0.0000 C   0  0  1  0  0  0  0  0  0  0  0  0
   10.1723    2.0175    0.0000 C   0  0  0  0  0  0  0  0  0  0  0  0
    6.6474    7.5906    0.0000 C   0  0  0  0  0  0  0  0  0  0  0  0
    7.8726    1.3472    0.0000 C   0  0  0  0  0  0  0  0  0  0  0  0
    7.0292    0.8099    0.0000 C   0  0  2  0  0  0  0  0  0  0  0  0
   10.1115    7.5906    0.0000 C   0  0  0  0  0  0  0  0  0  0  0  0
   10.8794    3.7246    0.0000 C   0  0  0  0  0  0  0  0  0  0  0  0
   11.3412    1.8376    0.0000 C   0  0  0  0  0  0  0  0  0  0  0  0
    6.1422    1.2716    0.0000 C   0  0  0  0  0  0  0  0  0  0  0  0
   11.1115    7.5906    0.0000 C   0  0  0  0  0  0  0  0  0  0  0  0
   10.6643    9.0841    0.0000 C   0  0  0  0  0  0  0  0  0  0  0  0
   11.7455    4.2246    0.0000 C   0  0  0  0  0  0  0  0  0  0  0  0
   11.7532    3.2065    0.0000 C   0  0  0  0  0  0  0  0  0  0  0  0
    7.9598   -0.6509    0.0000 C   0  0  0  0  0  0  0  0  0  0  0  0
    6.2294   -0.7265    0.0000 C   0  0  0  0  0  0  0  0  0  0  0  0
   11.6115    6.7246    0.0000 C   0  0  0  0  0  0  0  0  0  0  0  0
   11.7455    5.2246    0.0000 C   0  0  0  0  0  0  0  0  0  0  0  0
   12.6115    5.7246    0.0000 C   0  0  0  0  0  0  0  0  0  0  0  0
   12.6115    6.7246    0.0000 C   0  0  0  0  0  0  0  0  0  0  0  0
    6.2730   -1.7255    0.0000 C   0  0  0  0  0  0  0  0  0  0  0  0
   12.6349    3.7111    0.0000 C   0  0  0  0  0  0  0  0  0  0  0  0
   12.6310    4.7269    0.0000 C   0  0  0  0  0  0  0  0  0  0  0  0
    5.4296   -2.2628    0.0000 C   0  0  0  0  0  0  0  0  0  0  0  0
   13.3186    7.4317    0.0000 C   0  0  0  0  0  0  0  0  0  0  0  0
    5.4732   -3.2619    0.0000 C   0  0  0  0  0  0  0  0  0  0  0  0
    4.4742   -3.3055    0.0000 C   0  0  0  0  0  0  0  0  0  0  0  0
    6.4723   -3.2183    0.0000 C   0  0  0  0  0  0  0  0  0  0  0  0
   14.3670    3.7111    0.0000 C   0  0  0  0  0  0  0  0  0  0  0  0
    4.7171   -5.7973    0.0000 C   0  0  0  0  0  0  0  0  0  0  0  0
    3.8737   -6.3346    0.0000 C   0  0  0  0  0  0  0  0  0  0  0  0
    3.9173   -7.3336    0.0000 C   0  0  3  0  0  0  0  0  0  0  0  0
    4.8043   -7.7954    0.0000 C   0  0  0  0  0  0  0  0  0  0  0  0
    9.2354    4.9904    0.0000 H   0  0  0  0  0  0  0  0  0  0  0  0
    7.2937    4.5108    0.0000 H   0  0  0  0  0  0  0  0  0  0  0  0
    8.0576    2.9644    0.0000 H   0  0  0  0  0  0  0  0  0  0  0  0
    6.7773    5.6656    0.0000 H   0  0  0  0  0  0  0  0  0  0  0  0
    9.8417    4.5947    0.0000 H   0  0  0  0  0  0  0  0  0  0  0  0
   10.5373    4.0609    0.0000 H   0  0  0  0  0  0  0  0  0  0  0  0
   10.0035    3.3653    0.0000 H   0  0  0  0  0  0  0  0  0  0  0  0
    6.7737    4.1756    0.0000 H   0  0  0  0  0  0  0  0  0  0  0  0
    5.9840    4.5565    0.0000 H   0  0  0  0  0  0  0  0  0  0  0  0
    6.3649    5.3463    0.0000 H   0  0  0  0  0  0  0  0  0  0  0  0
    8.9900    6.6983    0.0000 H   0  0  0  0  0  0  0  0  0  0  0  0
    8.5915    6.0080    0.0000 H   0  0  0  0  0  0  0  0  0  0  0  0
    9.2800    1.4069    0.0000 H   0  0  0  0  0  0  0  0  0  0  0  0
    8.5897    1.8054    0.0000 H   0  0  0  0  0  0  0  0  0  0  0  0
    9.0850    8.6895    0.0000 H   0  0  0  0  0  0  0  0  0  0  0  0
    7.2034    8.6276    0.0000 H   0  0  0  0  0  0  0  0  0  0  0  0
    8.0694    9.1276    0.0000 H   0  0  0  0  0  0  0  0  0  0  0  0
    7.5791    0.5236    0.0000 H   0  0  0  0  0  0  0  0  0  0  0  0
    9.9510    6.9917    0.0000 H   0  0  0  0  0  0  0  0  0  0  0  0
   11.8912    2.1239    0.0000 H   0  0  0  0  0  0  0  0  0  0  0  0
   11.6275    1.2877    0.0000 H   0  0  0  0  0  0  0  0  0  0  0  0
   10.7913    1.5513    0.0000 H   0  0  0  0  0  0  0  0  0  0  0  0
    5.8559    0.7217    0.0000 H   0  0  0  0  0  0  0  0  0  0  0  0
    5.5922    1.5579    0.0000 H   0  0  0  0  0  0  0  0  0  0  0  0
    6.4284    1.8216    0.0000 H   0  0  0  0  0  0  0  0  0  0  0  0
   11.4215    8.1276    0.0000 H   0  0  0  0  0  0  0  0  0  0  0  0
   10.6102    9.7017    0.0000 H   0  0  0  0  0  0  0  0  0  0  0  0
   11.2819    9.1381    0.0000 H   0  0  0  0  0  0  0  0  0  0  0  0
   10.7183    8.4664    0.0000 H   0  0  0  0  0  0  0  0  0  0  0  0
   12.2824    3.9146    0.0000 H   0  0  0  0  0  0  0  0  0  0  0  0
    8.2461   -0.1010    0.0000 H   0  0  0  0  0  0  0  0  0  0  0  0
    8.5097   -0.9372    0.0000 H   0  0  0  0  0  0  0  0  0  0  0  0
    7.6735   -1.2009    0.0000 H   0  0  0  0  0  0  0  0  0  0  0  0
   11.3015    6.1876    0.0000 H   0  0  0  0  0  0  0  0  0  0  0  0
   13.2221    5.8322    0.0000 H   0  0  0  0  0  0  0  0  0  0  0  0
   12.8235    5.1420    0.0000 H   0  0  0  0  0  0  0  0  0  0  0  0
    6.8783   -1.5913    0.0000 H   0  0  0  0  0  0  0  0  0  0  0  0
    6.5103   -2.2983    0.0000 H   0  0  0  0  0  0  0  0  0  0  0  0
   13.1655    5.0410    0.0000 H   0  0  0  0  0  0  0  0  0  0  0  0
    4.8243   -2.3970    0.0000 H   0  0  0  0  0  0  0  0  0  0  0  0
    5.1924   -1.6900    0.0000 H   0  0  0  0  0  0  0  0  0  0  0  0
   12.8802    7.8701    0.0000 H   0  0  0  0  0  0  0  0  0  0  0  0
   13.7570    7.8701    0.0000 H   0  0  0  0  0  0  0  0  0  0  0  0
   13.7570    6.9933    0.0000 H   0  0  0  0  0  0  0  0  0  0  0  0
    4.5012   -3.9249    0.0000 H   0  0  0  0  0  0  0  0  0  0  0  0
    3.8548   -3.3326    0.0000 H   0  0  0  0  0  0  0  0  0  0  0  0
    4.4471   -2.6861    0.0000 H   0  0  0  0  0  0  0  0  0  0  0  0
    6.4452   -2.5988    0.0000 H   0  0  0  0  0  0  0  0  0  0  0  0
    7.0917   -3.1912    0.0000 H   0  0  0  0  0  0  0  0  0  0  0  0
    6.4993   -3.8377    0.0000 H   0  0  0  0  0  0  0  0  0  0  0  0
   14.0570    4.2480    0.0000 H   0  0  0  0  0  0  0  0  0  0  0  0
   14.9039    4.0211    0.0000 H   0  0  0  0  0  0  0  0  0  0  0  0
   14.6770    3.1741    0.0000 H   0  0  0  0  0  0  0  0  0  0  0  0
    5.3224   -5.6631    0.0000 H   0  0  0  0  0  0  0  0  0  0  0  0
    4.9544   -6.3701    0.0000 H   0  0  0  0  0  0  0  0  0  0  0  0
    3.2684   -6.4688    0.0000 H   0  0  0  0  0  0  0  0  0  0  0  0
    3.6364   -5.7618    0.0000 H   0  0  0  0  0  0  0  0  0  0  0  0
    3.9444   -7.9530    0.0000 H   0  0  0  0  0  0  0  0  0  0  0  0
    1.6806   -8.1219    0.0000 H   0  0  0  0  0  0  0  0  0  0  0  0
    5.3979   -9.0807    0.0000 H   0  0  0  0  0  0  0  0  0  0  0  0
    4.3250   -9.1276    0.0000 H   0  0  0  0  0  0  0  0  0  0  0  0
  1 45  1  0  0  0  0
  2  3  1  0  0  0  0
  2 57  1  0  0  0  0
  3 61  1  0  0  0  0
  4 15  1  0  0  0  0
  4 16  2  0  0  0  0
  4 17  2  0  0  0  0
  4 63  1  0  0  0  0
  5 23  1  0  0  0  0
  5 24  1  0  0  0  0
 26  6  1  6  0  0  0
  6 36  1  0  0  0  0
  7 27  1  0  0  0  0
  7 35  1  0  0  0  0
 32  8  1  6  0  0  0
  8 81  1  0  0  0  0
 33  9  1  6  0  0  0
  9 43  1  0  0  0  0
 10 34  2  0  0  0  0
 11 35  2  0  0  0  0
 12 36  2  0  0  0  0
 13 47  2  0  0  0  0
 14 53  1  0  0  0  0
 14 60  1  0  0  0  0
 15123  1  0  0  0  0
 18 64  2  0  0  0  0
 19 32  1  0  0  0  0
 19 35  1  0  0  0  0
 19 80  1  0  0  0  0
 20 34  1  0  0  0  0
 20 39  1  0  0  0  0
 20 40  1  0  0  0  0
 37 21  1  1  0  0  0
 21 46  1  0  0  0  0
 21 47  1  0  0  0  0
 22 64  1  0  0  0  0
 22124  1  0  0  0  0
 22125  1  0  0  0  0
 23 24  1  0  0  0  0
 23 26  1  0  0  0  0
 23 28  1  1  0  0  0
 24 25  1  0  0  0  0
 24 65  1  6  0  0  0
 25 27  1  0  0  0  0
 25 29  1  6  0  0  0
 25 66  1  0  0  0  0
 26 31  1  0  0  0  0
 26 67  1  0  0  0  0
 27 30  1  0  0  0  0
 27 68  1  6  0  0  0
 28 69  1  0  0  0  0
 28 70  1  0  0  0  0
 28 71  1  0  0  0  0
 29 72  1  0  0  0  0
 29 73  1  0  0  0  0
 29 74  1  0  0  0  0
 30 32  1  0  0  0  0
 30 75  1  0  0  0  0
 30 76  1  0  0  0  0
 31 34  1  0  0  0  0
 31 77  1  0  0  0  0
 31 78  1  0  0  0  0
 32 33  1  0  0  0  0
 33 38  1  0  0  0  0
 33 79  1  0  0  0  0
 36 37  1  0  0  0  0
 37 41  1  0  0  0  0
 37 82  1  0  0  0  0
 38 42  2  0  0  0  0
 38 83  1  0  0  0  0
 39 44  1  0  0  0  0
 39 45  2  0  0  0  0
 40 84  1  0  0  0  0
 40 85  1  0  0  0  0
 40 86  1  0  0  0  0
 41 87  1  0  0  0  0
 41 88  1  0  0  0  0
 41 89  1  0  0  0  0
 42 48  1  0  0  0  0
 42 90  1  0  0  0  0
 43 91  1  0  0  0  0
 43 92  1  0  0  0  0
 43 93  1  0  0  0  0
 44 49  2  0  0  0  0
 44 94  1  0  0  0  0
 45 53  1  0  0  0  0
 46 95  1  0  0  0  0
 46 96  1  0  0  0  0
 46 97  1  0  0  0  0
 47 52  1  0  0  0  0
 48 51  2  0  0  0  0
 48 98  1  0  0  0  0
 49 50  1  0  0  0  0
 49 54  1  0  0  0  0
 50 51  1  0  0  0  0
 50 99  1  0  0  0  0
 50100  1  0  0  0  0
 51 56  1  0  0  0  0
 52 55  1  0  0  0  0
 52101  1  0  0  0  0
 52102  1  0  0  0  0
 53 54  2  0  0  0  0
 54103  1  0  0  0  0
 55 57  1  0  0  0  0
 55104  1  0  0  0  0
 55105  1  0  0  0  0
 56106  1  0  0  0  0
 56107  1  0  0  0  0
 56108  1  0  0  0  0
 57 58  1  0  0  0  0
 57 59  1  0  0  0  0
 58109  1  0  0  0  0
 58110  1  0  0  0  0
 58111  1  0  0  0  0
 59112  1  0  0  0  0
 59113  1  0  0  0  0
 59114  1  0  0  0  0
 60115  1  0  0  0  0
 60116  1  0  0  0  0
 60117  1  0  0  0  0
 61 62  1  0  0  0  0
 61118  1  0  0  0  0
 61119  1  0  0  0  0
 62 63  1  0  0  0  0
 62120  1  0  0  0  0
 62121  1  0  0  0  0
 63 64  1  0  0  0  0
 63122  1  0  0  0  0
M  END
> <PUBCHEM_COMPOUND_CID>
91810695

> <PUBCHEM_COMPOUND_CANONICALIZED>
1

> <PUBCHEM_CACTVS_COMPLEXITY>
1890

> <PUBCHEM_CACTVS_HBOND_ACCEPTOR>
16

> <PUBCHEM_CACTVS_HBOND_DONOR>
4

> <PUBCHEM_CACTVS_ROTATABLE_BOND>
16

> <PUBCHEM_CACTVS_SUBSKEYS>
AAADcfB/vABkAAAAAAAAAAAAEgAAAAAAAAA8QAAAAAAAAAABAAAAHgYQCAAADX7l2CayzoPABoKIAiXSWHDCCAAhJkAIiAGOb4kPJjfFs7vPcChn9hnb6Af6/P/OBAABQgAACBAIAAKEAAAQIAAAAAAAAA==

> <PUBCHEM_IUPAC_OPENEYE_NAME>
1-amino-4-[[4-[[(1S)-2-[[(1S,2R,3S,5S,6S,16E,18E,20R,21S)-11-chloro-21-hydroxy-12,20-dimethoxy-2,5,9,16-tetramethyl-8,23-dioxo-4,24-dioxa-9,22-diazatetracyclo[19.3.1.110,14.03,5]hexacosa-10,12,14(26),16,18-pentaen-6-yl]oxy]-1-methyl-2-oxo-ethyl]-methyl-amino]-1,1-dimethyl-4-oxo-butyl]disulfanyl]-1-oxo-butane-2-sulfonic acid

> <PUBCHEM_IUPAC_CAS_NAME>
1-amino-4-[[5-[[(2S)-1-[[(1S,2R,3S,5S,6S,16E,18E,20R,21S)-11-chloro-21-hydroxy-12,20-dimethoxy-2,5,9,16-tetramethyl-8,23-dioxo-4,24-dioxa-9,22-diazatetracyclo[19.3.1.110,14.03,5]hexacosa-10,12,14(26),16,18-pentaen-6-yl]oxy]-1-oxopropan-2-yl]-methylamino]-2-methyl-5-oxopentan-2-yl]disulfanyl]-1-oxo-2-butanesulfonic acid

> <PUBCHEM_IUPAC_NAME_MARKUP>
1-amino-4-[[5-[[(2<I>S</I>)-1-[[(1<I>S</I>,2<I>R</I>,3<I>S</I>,5<I>S</I>,6<I>S</I>,16<I>E</I>,18<I>E</I>,20<I>R</I>,21<I>S</I>)-11-chloro-21-hydroxy-12,20-dimethoxy-2,5,9,16-tetramethyl-8,23-dioxo-4,24-dioxa-9,22-diazatetracyclo[19.3.1.1<SUP>10,14</SUP>.0<SUP>3,5</SUP>]hexacosa-10,12,14(26),16,18-pentaen-6-yl]oxy]-1-oxopropan-2-yl]-methylamino]-2-methyl-5-oxopentan-2-yl]disulfanyl]-1-oxobutane-2-sulfonic acid

> <PUBCHEM_IUPAC_NAME>
1-amino-4-[[5-[[(2S)-1-[[(1S,2R,3S,5S,6S,16E,18E,20R,21S)-11-chloro-21-hydroxy-12,20-dimethoxy-2,5,9,16-tetramethyl-8,23-dioxo-4,24-dioxa-9,22-diazatetracyclo[19.3.1.110,14.03,5]hexacosa-10,12,14(26),16,18-pentaen-6-yl]oxy]-1-oxopropan-2-yl]-methylamino]-2-methyl-5-oxopentan-2-yl]disulfanyl]-1-oxobutane-2-sulfonic acid

> <PUBCHEM_IUPAC_SYSTEMATIC_NAME>
1-azanyl-4-[[5-[[(2S)-1-[[(1S,2R,3S,5S,6S,16E,18E,20R,21S)-11-chloranyl-12,20-dimethoxy-2,5,9,16-tetramethyl-21-oxidanyl-8,23-bis(oxidanylidene)-4,24-dioxa-9,22-diazatetracyclo[19.3.1.110,14.03,5]hexacosa-10,12,14(26),16,18-pentaen-6-yl]oxy]-1-oxidanylidene-propan-2-yl]-methyl-amino]-2-methyl-5-oxidanylidene-pentan-2-yl]disulfanyl]-1-oxidanylidene-butane-2-sulfonic acid

> <PUBCHEM_IUPAC_TRADITIONAL_NAME>
1-amino-4-[[4-[[(1S)-2-[[(1S,2R,3S,5S,6S,16E,18E,20R,21S)-11-chloro-21-hydroxy-8,23-diketo-12,20-dimethoxy-2,5,9,16-tetramethyl-4,24-dioxa-9,22-diazatetracyclo[19.3.1.110,14.03,5]hexacosa-10,12,14(26),16,18-pentaen-6-yl]oxy]-2-keto-1-methyl-ethyl]-methyl-amino]-4-keto-1,1-dimethyl-butyl]disulfanyl]-1-keto-butane-2-sulfonic acid

> <PUBCHEM_IUPAC_INCHI>
InChI=1S/C42H61ClN4O14S3/c1-23-12-11-13-31(58-10)42(53)22-29(59-39(52)45-42)24(2)36-41(6,61-36)32(21-34(49)47(8)27-19-26(18-23)20-28(57-9)35(27)43)60-38(51)25(3)46(7)33(48)14-16-40(4,5)63-62-17-15-30(37(44)50)64(54,55)56/h11-13,19-20,24-25,29-32,36,53H,14-18,21-22H2,1-10H3,(H2,44,50)(H,45,52)(H,54,55,56)/b13-11+,23-12+/t24-,25+,29+,30?,31-,32+,36+,41+,42+/m1/s1

> <PUBCHEM_IUPAC_INCHIKEY>
ZOHXWSHGANNQGO-DSIKUUPMSA-N

> <PUBCHEM_XLOGP3>
1.8

> <PUBCHEM_EXACT_MASS>
976.3034938

> <PUBCHEM_MOLECULAR_FORMULA>
C42H61ClN4O14S3

> <PUBCHEM_MOLECULAR_WEIGHT>
977.6

> <PUBCHEM_OPENEYE_CAN_SMILES>
CC1C2CC(C(C=CC=C(CC3=CC(=C(C(=C3)OC)Cl)N(C(=O)CC(C4(C1O4)C)OC(=O)C(C)N(C)C(=O)CCC(C)(C)SSCCC(C(=O)N)S(=O)(=O)O)C)C)OC)(NC(=O)O2)O

> <PUBCHEM_OPENEYE_ISO_SMILES>
C[C@@H]1[C@@H]2C[C@]([C@@H](/C=C/C=C(/CC3=CC(=C(C(=C3)OC)Cl)N(C(=O)C[C@@H]([C@]4([C@H]1O4)C)OC(=O)[C@H](C)N(C)C(=O)CCC(C)(C)SSCCC(C(=O)N)S(=O)(=O)O)C)\C)OC)(NC(=O)O2)O

> <PUBCHEM_CACTVS_TPSA>
313

> <PUBCHEM_MONOISOTOPIC_WEIGHT>
976.3034938

> <PUBCHEM_TOTAL_CHARGE>
0

> <PUBCHEM_HEAVY_ATOM_COUNT>
64

> <PUBCHEM_ATOM_DEF_STEREO_COUNT>
8

> <PUBCHEM_ATOM_UDEF_STEREO_COUNT>
1

> <PUBCHEM_BOND_DEF_STEREO_COUNT>
2

> <PUBCHEM_BOND_UDEF_STEREO_COUNT>
0

> <PUBCHEM_ISOTOPIC_ATOM_COUNT>
0

> <PUBCHEM_COMPONENT_COUNT>
1

> <PUBCHEM_CACTVS_TAUTO_COUNT>
-1

> <PUBCHEM_COORDINATE_TYPE>
1
5
255

> <PUBCHEM_BONDANNOTATIONS>
37  21  5
23  28  5
24  65  6
25  29  6
27  68  6
39  44  8
39  45  8
44  49  8
45  53  8
49  54  8
53  54  8
26  6  6
63  62  3
32  8  6
33  9  6

$$$$
