11431716
  -OEChem-12122310242D

 43 42  0     0  0  0  0  0  0999 V2000
    9.1360    4.4650    0.0000 Tc  2  0  0  0  0  0  0  0  0  0  0  0
    0.5369    1.6200    0.0000 Br  0  0  0  0  0  0  0  0  0  0  0  0
    4.0010    4.6200    0.0000 O   0  0  0  0  0  0  0  0  0  0  0  0
    3.1350    9.1200    0.0000 O   0  0  0  0  0  0  0  0  0  0  0  0
    6.5991    6.1200    0.0000 O   0  0  0  0  0  0  0  0  0  0  0  0
    2.2690    7.6200    0.0000 O   0  0  0  0  0  0  0  0  0  0  0  0
    5.7331    7.6200    0.0000 O   0  0  0  0  0  0  0  0  0  0  0  0
    4.0010    6.6200    0.0000 N   0  0  0  0  0  0  0  0  0  0  0  0
    2.2690    4.6200    0.0000 N   0  0  0  0  0  0  0  0  0  0  0  0
    2.2690    3.6200    0.0000 C   0  0  0  0  0  0  0  0  0  0  0  0
    3.1350    6.1200    0.0000 C   0  0  0  0  0  0  0  0  0  0  0  0
    1.4030    3.1200    0.0000 C   0  0  0  0  0  0  0  0  0  0  0  0
    3.1350    3.1200    0.0000 C   0  0  0  0  0  0  0  0  0  0  0  0
    3.1350    5.1200    0.0000 C   0  0  0  0  0  0  0  0  0  0  0  0
    2.2690    1.6200    0.0000 C   0  0  0  0  0  0  0  0  0  0  0  0
    1.4030    2.1200    0.0000 C   0  0  0  0  0  0  0  0  0  0  0  0
    3.1350    2.1200    0.0000 C   0  0  0  0  0  0  0  0  0  0  0  0
    4.0010    7.6200    0.0000 C   0  0  0  0  0  0  0  0  0  0  0  0
    4.8671    6.1200    0.0000 C   0  0  0  0  0  0  0  0  0  0  0  0
    0.5369    3.6200    0.0000 C   0  0  0  0  0  0  0  0  0  0  0  0
    4.0010    3.6200    0.0000 C   0  0  0  0  0  0  0  0  0  0  0  0
    2.2690    0.6200    0.0000 C   0  0  0  0  0  0  0  0  0  0  0  0
    3.1350    8.1200    0.0000 C   0  0  0  0  0  0  0  0  0  0  0  0
    5.7331    6.6200    0.0000 C   0  0  0  0  0  0  0  0  0  0  0  0
    2.9230    6.7026    0.0000 H   0  0  0  0  0  0  0  0  0  0  0  0
    2.5244    6.0123    0.0000 H   0  0  0  0  0  0  0  0  0  0  0  0
    1.7320    4.9300    0.0000 H   0  0  0  0  0  0  0  0  0  0  0  0
    3.6720    1.8100    0.0000 H   0  0  0  0  0  0  0  0  0  0  0  0
    4.6116    7.5123    0.0000 H   0  0  0  0  0  0  0  0  0  0  0  0
    4.2131    8.2026    0.0000 H   0  0  0  0  0  0  0  0  0  0  0  0
    4.4685    5.6450    0.0000 H   0  0  0  0  0  0  0  0  0  0  0  0
    5.2656    5.6450    0.0000 H   0  0  0  0  0  0  0  0  0  0  0  0
    0.8469    4.1569    0.0000 H   0  0  0  0  0  0  0  0  0  0  0  0
    0.0000    3.9300    0.0000 H   0  0  0  0  0  0  0  0  0  0  0  0
    0.2269    3.0831    0.0000 H   0  0  0  0  0  0  0  0  0  0  0  0
    4.3110    3.0831    0.0000 H   0  0  0  0  0  0  0  0  0  0  0  0
    4.5380    3.9300    0.0000 H   0  0  0  0  0  0  0  0  0  0  0  0
    3.6910    4.1569    0.0000 H   0  0  0  0  0  0  0  0  0  0  0  0
    1.6490    0.6200    0.0000 H   0  0  0  0  0  0  0  0  0  0  0  0
    2.2690    0.0000    0.0000 H   0  0  0  0  0  0  0  0  0  0  0  0
    2.8890    0.6200    0.0000 H   0  0  0  0  0  0  0  0  0  0  0  0
    3.6720    9.4300    0.0000 H   0  0  0  0  0  0  0  0  0  0  0  0
    7.1360    6.4300    0.0000 H   0  0  0  0  0  0  0  0  0  0  0  0
  2 16  1  0  0  0  0
  3 14  2  0  0  0  0
  4 23  1  0  0  0  0
  4 42  1  0  0  0  0
  5 24  1  0  0  0  0
  5 43  1  0  0  0  0
  6 23  2  0  0  0  0
  7 24  2  0  0  0  0
  8 11  1  0  0  0  0
  8 18  1  0  0  0  0
  8 19  1  0  0  0  0
  9 10  1  0  0  0  0
  9 14  1  0  0  0  0
  9 27  1  0  0  0  0
 10 12  2  0  0  0  0
 10 13  1  0  0  0  0
 11 14  1  0  0  0  0
 11 25  1  0  0  0  0
 11 26  1  0  0  0  0
 12 16  1  0  0  0  0
 12 20  1  0  0  0  0
 13 17  2  0  0  0  0
 13 21  1  0  0  0  0
 15 16  2  0  0  0  0
 15 17  1  0  0  0  0
 15 22  1  0  0  0  0
 17 28  1  0  0  0  0
 18 23  1  0  0  0  0
 18 29  1  0  0  0  0
 18 30  1  0  0  0  0
 19 24  1  0  0  0  0
 19 31  1  0  0  0  0
 19 32  1  0  0  0  0
 20 33  1  0  0  0  0
 20 34  1  0  0  0  0
 20 35  1  0  0  0  0
 21 36  1  0  0  0  0
 21 37  1  0  0  0  0
 21 38  1  0  0  0  0
 22 39  1  0  0  0  0
 22 40  1  0  0  0  0
 22 41  1  0  0  0  0
M  ISO  1   1  99
M  END
> <PUBCHEM_COMPOUND_CID>
11431716

> <PUBCHEM_COMPOUND_CANONICALIZED>
1

> <PUBCHEM_CACTVS_COMPLEXITY>
443

> <PUBCHEM_CACTVS_HBOND_ACCEPTOR>
6

> <PUBCHEM_CACTVS_HBOND_DONOR>
3

> <PUBCHEM_CACTVS_ROTATABLE_BOND>
7

> <PUBCHEM_CACTVS_SUBSKEYS>
AAADceBzOAAAEAAAAAAAAAAAQAAAAAAAAAAwAAAAAAAAAAABAAAAHgBQCAABrAjBmAQyyIPAAgCIAiXSWACCAAAhAAQAiACIRKgKYCLAkbGUIAhglADYyhcQgEAOCgACAAECgAAUAAQAAgUAAAAAAAAAAA==

> <PUBCHEM_IUPAC_OPENEYE_NAME>
2-[[2-(3-bromo-2,4,6-trimethyl-anilino)-2-oxo-ethyl]-(carboxymethyl)amino]acetic acid;technetium-99

> <PUBCHEM_IUPAC_CAS_NAME>
2-[[2-(3-bromo-2,4,6-trimethylanilino)-2-oxoethyl]-(carboxymethyl)amino]acetic acid;technetium-99

> <PUBCHEM_IUPAC_NAME_MARKUP>
2-[[2-(3-bromo-2,4,6-trimethylanilino)-2-oxoethyl]-(carboxymethyl)amino]acetic acid;technetium-99

> <PUBCHEM_IUPAC_NAME>
2-[[2-(3-bromo-2,4,6-trimethylanilino)-2-oxoethyl]-(carboxymethyl)amino]acetic acid;technetium-99

> <PUBCHEM_IUPAC_SYSTEMATIC_NAME>
2-[[2-[(3-bromanyl-2,4,6-trimethyl-phenyl)amino]-2-oxidanylidene-ethyl]-(2-hydroxy-2-oxoethyl)amino]ethanoic acid;technetium-99

> <PUBCHEM_IUPAC_TRADITIONAL_NAME>
2-[[2-(3-bromo-2,4,6-trimethyl-anilino)-2-keto-ethyl]-(carboxymethyl)amino]acetic acid;technetium-99

> <PUBCHEM_IUPAC_INCHI>
InChI=1S/C15H19BrN2O5.Tc/c1-8-4-9(2)15(10(3)14(8)16)17-11(19)5-18(6-12(20)21)7-13(22)23;/h4H,5-7H2,1-3H3,(H,17,19)(H,20,21)(H,22,23);/i;1+1

> <PUBCHEM_IUPAC_INCHIKEY>
JLJSYHOPCNWUNE-IEOVAKBOSA-N

> <PUBCHEM_EXACT_MASS>
484.95398

> <PUBCHEM_MOLECULAR_FORMULA>
C15H19BrN2O5Tc

> <PUBCHEM_MOLECULAR_WEIGHT>
486.13

> <PUBCHEM_OPENEYE_CAN_SMILES>
CC1=CC(=C(C(=C1NC(=O)CN(CC(=O)O)CC(=O)O)C)Br)C.[Tc]

> <PUBCHEM_OPENEYE_ISO_SMILES>
CC1=CC(=C(C(=C1NC(=O)CN(CC(=O)O)CC(=O)O)C)Br)C.[99Tc]

> <PUBCHEM_CACTVS_TPSA>
107

> <PUBCHEM_MONOISOTOPIC_WEIGHT>
484.95398

> <PUBCHEM_TOTAL_CHARGE>
0

> <PUBCHEM_HEAVY_ATOM_COUNT>
24

> <PUBCHEM_ATOM_DEF_STEREO_COUNT>
0

> <PUBCHEM_ATOM_UDEF_STEREO_COUNT>
0

> <PUBCHEM_BOND_DEF_STEREO_COUNT>
0

> <PUBCHEM_BOND_UDEF_STEREO_COUNT>
0

> <PUBCHEM_ISOTOPIC_ATOM_COUNT>
1

> <PUBCHEM_COMPONENT_COUNT>
2

> <PUBCHEM_CACTVS_TAUTO_COUNT>
3

> <PUBCHEM_COORDINATE_TYPE>
1
5
255

> <PUBCHEM_BONDANNOTATIONS>
10  12  8
10  13  8
12  16  8
13  17  8
15  16  8
15  17  8

$$$$
