71587286
  -OEChem-12122310242D

 39 37  0     0  0  0  0  0  0999 V2000
    4.6310   -3.4294    0.0000 Tc  0  0  0  0  0  0  0  0  0  0  0  0
    4.8485    0.5715    0.0000 O   0  0  0  0  0  0  0  0  0  0  0  0
    5.3381   -2.7223    0.0000 O   0  5  0  0  0  0  0  0  0  0  0  0
    3.6310   -3.4294    0.0000 O   0  5  0  0  0  0  0  0  0  0  0  0
    6.2620   -1.3396    0.0000 O   0  0  0  0  0  0  0  0  0  0  0  0
    2.0000   -3.1050    0.0000 O   0  0  0  0  0  0  0  0  0  0  0  0
    5.3381   -4.1365    0.0000 O   0  6  0  0  0  0  0  0  0  0  0  0
    3.6310   -1.0152    0.0000 N   0  0  0  0  0  0  0  0  0  0  0  0
    3.4744    1.6259    0.0000 N   0  0  0  0  0  0  0  0  0  0  0  0
    3.2483   -0.0913    0.0000 C   0  0  0  0  0  0  0  0  0  0  0  0
    4.0831    2.4193    0.0000 C   0  0  0  0  0  0  0  0  0  0  0  0
    3.8571    0.7020    0.0000 C   0  0  0  0  0  0  0  0  0  0  0  0
    4.6310   -1.0152    0.0000 C   0  0  0  0  0  0  0  0  0  0  0  0
    2.9239   -1.7223    0.0000 C   0  0  0  0  0  0  0  0  0  0  0  0
    3.7005    3.3432    0.0000 C   0  0  0  0  0  0  0  0  0  0  0  0
    5.0746    2.2888    0.0000 C   0  0  0  0  0  0  0  0  0  0  0  0
    4.3092    4.1365    0.0000 C   0  0  0  0  0  0  0  0  0  0  0  0
    5.6834    3.0821    0.0000 C   0  0  0  0  0  0  0  0  0  0  0  0
    2.7090    3.4737    0.0000 C   0  0  0  0  0  0  0  0  0  0  0  0
    5.4573    1.3649    0.0000 C   0  0  0  0  0  0  0  0  0  0  0  0
    5.3007    4.0060    0.0000 C   0  0  0  0  0  0  0  0  0  0  0  0
    5.3381   -1.7223    0.0000 C   0  0  0  0  0  0  0  0  0  0  0  0
    2.9239   -2.7223    0.0000 C   0  0  0  0  0  0  0  0  0  0  0  0
    2.8294    0.3658    0.0000 H   0  0  0  0  0  0  0  0  0  0  0  0
    2.7254   -0.4244    0.0000 H   0  0  0  0  0  0  0  0  0  0  0  0
    5.1679   -0.7052    0.0000 H   0  0  0  0  0  0  0  0  0  0  0  0
    4.4705   -0.4163    0.0000 H   0  0  0  0  0  0  0  0  0  0  0  0
    2.6139   -1.1854    0.0000 H   0  0  0  0  0  0  0  0  0  0  0  0
    2.3250   -1.8828    0.0000 H   0  0  0  0  0  0  0  0  0  0  0  0
    2.8597    1.7068    0.0000 H   0  0  0  0  0  0  0  0  0  0  0  0
    4.0720    4.7093    0.0000 H   0  0  0  0  0  0  0  0  0  0  0  0
    6.2980    3.0012    0.0000 H   0  0  0  0  0  0  0  0  0  0  0  0
    2.7899    4.0884    0.0000 H   0  0  0  0  0  0  0  0  0  0  0  0
    2.0943    3.5546    0.0000 H   0  0  0  0  0  0  0  0  0  0  0  0
    2.6281    2.8590    0.0000 H   0  0  0  0  0  0  0  0  0  0  0  0
    4.8845    1.1276    0.0000 H   0  0  0  0  0  0  0  0  0  0  0  0
    5.6945    0.7921    0.0000 H   0  0  0  0  0  0  0  0  0  0  0  0
    6.0301    1.6021    0.0000 H   0  0  0  0  0  0  0  0  0  0  0  0
    5.6781    4.4979    0.0000 H   0  0  0  0  0  0  0  0  0  0  0  0
  2 12  2  0  0  0  0
  3 22  1  0  0  0  0
  4 23  1  0  0  0  0
  5 22  2  0  0  0  0
  6 23  2  0  0  0  0
  8 10  1  0  0  0  0
  8 13  1  0  0  0  0
  8 14  1  0  0  0  0
  9 11  1  0  0  0  0
  9 12  1  0  0  0  0
  9 30  1  0  0  0  0
 10 12  1  0  0  0  0
 10 24  1  0  0  0  0
 10 25  1  0  0  0  0
 11 15  2  0  0  0  0
 11 16  1  0  0  0  0
 13 22  1  0  0  0  0
 13 26  1  0  0  0  0
 13 27  1  0  0  0  0
 14 23  1  0  0  0  0
 14 28  1  0  0  0  0
 14 29  1  0  0  0  0
 15 17  1  0  0  0  0
 15 19  1  0  0  0  0
 16 18  2  0  0  0  0
 16 20  1  0  0  0  0
 17 21  2  0  0  0  0
 17 31  1  0  0  0  0
 18 21  1  0  0  0  0
 18 32  1  0  0  0  0
 19 33  1  0  0  0  0
 19 34  1  0  0  0  0
 19 35  1  0  0  0  0
 20 36  1  0  0  0  0
 20 37  1  0  0  0  0
 20 38  1  0  0  0  0
 21 39  1  0  0  0  0
M  CHG  4   1   4   3  -1   4  -1   7  -2
M  END
> <PUBCHEM_COMPOUND_CID>
71587286

> <PUBCHEM_COMPOUND_CANONICALIZED>
1

> <PUBCHEM_CACTVS_COMPLEXITY>
362

> <PUBCHEM_CACTVS_HBOND_ACCEPTOR>
7

> <PUBCHEM_CACTVS_HBOND_DONOR>
1

> <PUBCHEM_CACTVS_ROTATABLE_BOND>
5

> <PUBCHEM_CACTVS_SUBSKEYS>
AAADceBzOAAAAAAAAAAAAAAAQAAAAAAAAAAwAAAAAAAAAAABAAAAHgAQAAAADAjBmAQyyIPAAACIAiXSWACCAAAhAAAIiACIRIgKYCLAkbGUIAhglADYyAcQgEAOAAACAAACAAAAAAQAAAQAAAAAAAAAAA==

> <PUBCHEM_IUPAC_OPENEYE_NAME>
2-[carboxylatomethyl-[2-(2,6-dimethylanilino)-2-oxo-ethyl]amino]acetate;oxygen(2-);technetium(4+)

> <PUBCHEM_IUPAC_CAS_NAME>
2-[carboxylatomethyl-[2-(2,6-dimethylanilino)-2-oxoethyl]amino]acetate;oxygen(2-);technetium(4+)

> <PUBCHEM_IUPAC_NAME_MARKUP>
2-[carboxylatomethyl-[2-(2,6-dimethylanilino)-2-oxoethyl]amino]acetate;oxygen(2-);technetium(4+)

> <PUBCHEM_IUPAC_NAME>
2-[carboxylatomethyl-[2-(2,6-dimethylanilino)-2-oxoethyl]amino]acetate;oxygen(2-);technetium(4+)

> <PUBCHEM_IUPAC_SYSTEMATIC_NAME>
2-[[2-[(2,6-dimethylphenyl)amino]-2-oxidanylidene-ethyl]-(2-oxidanidyl-2-oxidanylidene-ethyl)amino]ethanoate;oxygen(2-);technetium(4+)

> <PUBCHEM_IUPAC_TRADITIONAL_NAME>
2-[carboxylatomethyl-[2-(2,6-dimethylanilino)-2-keto-ethyl]amino]acetate;oxygen(2-);technetium(4+)

> <PUBCHEM_IUPAC_INCHI>
InChI=1S/C14H18N2O5.O.Tc/c1-9-4-3-5-10(2)14(9)15-11(17)6-16(7-12(18)19)8-13(20)21;;/h3-5H,6-8H2,1-2H3,(H,15,17)(H,18,19)(H,20,21);;/q;-2;+4/p-2

> <PUBCHEM_IUPAC_INCHIKEY>
XHYOYWJTPCXJLF-UHFFFAOYSA-L

> <PUBCHEM_EXACT_MASS>
405.00720

> <PUBCHEM_MOLECULAR_FORMULA>
C14H16N2O6Tc

> <PUBCHEM_MOLECULAR_WEIGHT>
405.19

> <PUBCHEM_OPENEYE_CAN_SMILES>
CC1=C(C(=CC=C1)C)NC(=O)CN(CC(=O)[O-])CC(=O)[O-].[O-2].[Tc+4]

> <PUBCHEM_OPENEYE_ISO_SMILES>
CC1=C(C(=CC=C1)C)NC(=O)CN(CC(=O)[O-])CC(=O)[O-].[O-2].[Tc+4]

> <PUBCHEM_CACTVS_TPSA>
114

> <PUBCHEM_MONOISOTOPIC_WEIGHT>
405.00720

> <PUBCHEM_TOTAL_CHARGE>
0

> <PUBCHEM_HEAVY_ATOM_COUNT>
23

> <PUBCHEM_ATOM_DEF_STEREO_COUNT>
0

> <PUBCHEM_ATOM_UDEF_STEREO_COUNT>
0

> <PUBCHEM_BOND_DEF_STEREO_COUNT>
0

> <PUBCHEM_BOND_UDEF_STEREO_COUNT>
0

> <PUBCHEM_ISOTOPIC_ATOM_COUNT>
0

> <PUBCHEM_COMPONENT_COUNT>
3

> <PUBCHEM_CACTVS_TAUTO_COUNT>
-1

> <PUBCHEM_COORDINATE_TYPE>
1
5
255

> <PUBCHEM_BONDANNOTATIONS>
11  15  8
11  16  8
15  17  8
16  18  8
17  21  8
18  21  8

$$$$
