86580497
  -OEChem-12122310212D

125120  0     1  0  0  0  0  0999 V2000
   12.6002    1.0000    0.0000 Ca  0  2  0  0  0  0  0  0  0  0  0  0
    9.1360    1.0000    0.0000 F   0  0  0  0  0  0  0  0  0  0  0  0
   16.0643    1.0000    0.0000 F   0  0  0  0  0  0  0  0  0  0  0  0
    4.0010   13.8600    0.0000 O   0  0  0  0  0  0  0  0  0  0  0  0
    3.1350   11.3600    0.0000 O   0  0  0  0  0  0  0  0  0  0  0  0
    4.8671   11.3600    0.0000 O   0  0  0  0  0  0  0  0  0  0  0  0
    2.2690   13.8600    0.0000 O   0  0  0  0  0  0  0  0  0  0  0  0
    6.5991   12.3600    0.0000 O   0  0  0  0  0  0  0  0  0  0  0  0
    0.5369   12.8600    0.0000 O   0  0  0  0  0  0  0  0  0  0  0  0
   11.7341    1.5000    0.0000 O   0  5  0  0  0  0  0  0  0  0  0  0
   13.4662    1.5000    0.0000 O   0  5  0  0  0  0  0  0  0  0  0  0
   10.8681    0.0000    0.0000 O   0  0  0  0  0  0  0  0  0  0  0  0
   14.3322    0.0000    0.0000 O   0  0  0  0  0  0  0  0  0  0  0  0
    4.0010   12.8600    0.0000 C   0  0  1  0  0  0  0  0  0  0  0  0
    3.1350   12.3600    0.0000 C   0  0  1  0  0  0  0  0  0  0  0  0
    4.8671   12.3600    0.0000 C   0  0  1  0  0  0  0  0  0  0  0  0
    2.2690   12.8600    0.0000 C   0  0  2  0  0  0  0  0  0  0  0  0
    5.7331   12.8600    0.0000 C   0  0  0  0  0  0  0  0  0  0  0  0
    1.4030   12.3600    0.0000 C   0  0  0  0  0  0  0  0  0  0  0  0
   21.1993   12.3600    0.0000 C   0  0  0  0  0  0  0  0  0  0  0  0
   22.0653   12.8600    0.0000 C   0  0  0  0  0  0  0  0  0  0  0  0
   20.3332   12.8600    0.0000 C   0  0  0  0  0  0  0  0  0  0  0  0
   22.9313   12.3600    0.0000 C   0  0  0  0  0  0  0  0  0  0  0  0
   19.4672   12.3600    0.0000 C   0  0  0  0  0  0  0  0  0  0  0  0
   23.7973   12.8600    0.0000 C   0  0  0  0  0  0  0  0  0  0  0  0
   18.6012   12.8600    0.0000 C   0  0  0  0  0  0  0  0  0  0  0  0
   24.6634   12.3600    0.0000 C   0  0  0  0  0  0  0  0  0  0  0  0
   12.6002    6.9300    0.0000 C   0  0  0  0  0  0  0  0  0  0  0  0
   13.4662    7.4300    0.0000 C   0  0  0  0  0  0  0  0  0  0  0  0
   12.6002    5.9300    0.0000 C   0  0  0  0  0  0  0  0  0  0  0  0
   14.3322    6.9300    0.0000 C   0  0  0  0  0  0  0  0  0  0  0  0
   12.1671   13.3600    0.0000 C   0  0  0  0  0  0  0  0  0  0  0  0
   13.0332   14.8600    0.0000 C   0  0  0  0  0  0  0  0  0  0  0  0
   12.1671   14.3600    0.0000 C   0  0  0  0  0  0  0  0  0  0  0  0
   13.4662    5.4300    0.0000 C   0  0  0  0  0  0  0  0  0  0  0  0
   14.3322    5.9300    0.0000 C   0  0  0  0  0  0  0  0  0  0  0  0
   12.6002   21.1000    0.0000 C   0  0  0  0  0  0  0  0  0  0  0  0
   12.6002   23.1000    0.0000 C   0  0  0  0  0  0  0  0  0  0  0  0
   13.0332   12.8600    0.0000 C   0  0  0  0  0  0  0  0  0  0  0  0
   13.8992   14.3600    0.0000 C   0  0  0  0  0  0  0  0  0  0  0  0
   13.4662   21.6000    0.0000 C   0  0  0  0  0  0  0  0  0  0  0  0
   13.4662   22.6000    0.0000 C   0  0  0  0  0  0  0  0  0  0  0  0
   11.7341   21.6000    0.0000 C   0  0  0  0  0  0  0  0  0  0  0  0
   11.7341   22.6000    0.0000 C   0  0  0  0  0  0  0  0  0  0  0  0
   13.8992   13.3600    0.0000 C   0  0  0  0  0  0  0  0  0  0  0  0
   11.7341    7.4300    0.0000 C   0  0  0  0  0  0  0  0  0  0  0  0
   13.4662    8.4300    0.0000 C   0  0  0  0  0  0  0  0  0  0  0  0
   11.3011   12.8600    0.0000 C   0  0  0  0  0  0  0  0  0  0  0  0
   13.0332   15.8600    0.0000 C   0  0  0  0  0  0  0  0  0  0  0  0
   12.6002   20.1000    0.0000 C   0  0  0  0  0  0  0  0  0  0  0  0
   12.6002   24.1000    0.0000 C   0  0  0  0  0  0  0  0  0  0  0  0
   10.8681    6.9300    0.0000 C   0  0  0  0  0  0  0  0  0  0  0  0
   14.3322    8.9300    0.0000 C   0  0  0  0  0  0  0  0  0  0  0  0
   11.3011   11.8600    0.0000 C   0  0  0  0  0  0  0  0  0  0  0  0
   13.8992   16.3600    0.0000 C   0  0  0  0  0  0  0  0  0  0  0  0
   11.7341   19.6000    0.0000 C   0  0  0  0  0  0  0  0  0  0  0  0
   13.4662   24.6000    0.0000 C   0  0  0  0  0  0  0  0  0  0  0  0
   10.0021    1.5000    0.0000 C   0  0  0  0  0  0  0  0  0  0  0  0
   15.1982    1.5000    0.0000 C   0  0  0  0  0  0  0  0  0  0  0  0
   10.8681    1.0000    0.0000 C   0  0  0  0  0  0  0  0  0  0  0  0
   14.3322    1.0000    0.0000 C   0  0  0  0  0  0  0  0  0  0  0  0
   10.0021    2.5000    0.0000 C   0  0  0  0  0  0  0  0  0  0  0  0
   15.1982    2.5000    0.0000 C   0  0  0  0  0  0  0  0  0  0  0  0
    3.4641   13.1700    0.0000 H   0  0  0  0  0  0  0  0  0  0  0  0
    3.6720   12.0500    0.0000 H   0  0  0  0  0  0  0  0  0  0  0  0
    5.4040   12.0500    0.0000 H   0  0  0  0  0  0  0  0  0  0  0  0
    1.7320   13.1700    0.0000 H   0  0  0  0  0  0  0  0  0  0  0  0
    6.1316   13.3349    0.0000 H   0  0  0  0  0  0  0  0  0  0  0  0
    5.3346   13.3349    0.0000 H   0  0  0  0  0  0  0  0  0  0  0  0
    1.0044   11.8851    0.0000 H   0  0  0  0  0  0  0  0  0  0  0  0
    1.8015   11.8851    0.0000 H   0  0  0  0  0  0  0  0  0  0  0  0
    4.5380   14.1700    0.0000 H   0  0  0  0  0  0  0  0  0  0  0  0
    2.5981   11.0500    0.0000 H   0  0  0  0  0  0  0  0  0  0  0  0
    5.4040   11.0500    0.0000 H   0  0  0  0  0  0  0  0  0  0  0  0
    1.7320   14.1700    0.0000 H   0  0  0  0  0  0  0  0  0  0  0  0
    7.1360   12.6700    0.0000 H   0  0  0  0  0  0  0  0  0  0  0  0
    0.0000   12.5500    0.0000 H   0  0  0  0  0  0  0  0  0  0  0  0
   20.8007   11.8851    0.0000 H   0  0  0  0  0  0  0  0  0  0  0  0
   21.5978   11.8851    0.0000 H   0  0  0  0  0  0  0  0  0  0  0  0
   22.4638   13.3349    0.0000 H   0  0  0  0  0  0  0  0  0  0  0  0
   21.6668   13.3349    0.0000 H   0  0  0  0  0  0  0  0  0  0  0  0
   20.7318   13.3349    0.0000 H   0  0  0  0  0  0  0  0  0  0  0  0
   19.9347   13.3349    0.0000 H   0  0  0  0  0  0  0  0  0  0  0  0
   22.5328   11.8851    0.0000 H   0  0  0  0  0  0  0  0  0  0  0  0
   23.3298   11.8851    0.0000 H   0  0  0  0  0  0  0  0  0  0  0  0
   19.4672   11.7400    0.0000 H   0  0  0  0  0  0  0  0  0  0  0  0
   23.7973   13.4800    0.0000 H   0  0  0  0  0  0  0  0  0  0  0  0
   18.6012   13.4800    0.0000 H   0  0  0  0  0  0  0  0  0  0  0  0
   18.0643   12.5500    0.0000 H   0  0  0  0  0  0  0  0  0  0  0  0
   24.6634   11.7400    0.0000 H   0  0  0  0  0  0  0  0  0  0  0  0
   25.2003   12.6700    0.0000 H   0  0  0  0  0  0  0  0  0  0  0  0
   12.0632    5.6200    0.0000 H   0  0  0  0  0  0  0  0  0  0  0  0
   14.8691    7.2400    0.0000 H   0  0  0  0  0  0  0  0  0  0  0  0
   11.6302   14.6700    0.0000 H   0  0  0  0  0  0  0  0  0  0  0  0
   13.4662    4.8100    0.0000 H   0  0  0  0  0  0  0  0  0  0  0  0
   14.8691    5.6200    0.0000 H   0  0  0  0  0  0  0  0  0  0  0  0
   13.0332   12.2400    0.0000 H   0  0  0  0  0  0  0  0  0  0  0  0
   14.4361   14.6700    0.0000 H   0  0  0  0  0  0  0  0  0  0  0  0
   14.0031   21.2900    0.0000 H   0  0  0  0  0  0  0  0  0  0  0  0
   14.0031   22.9100    0.0000 H   0  0  0  0  0  0  0  0  0  0  0  0
   11.1972   21.2900    0.0000 H   0  0  0  0  0  0  0  0  0  0  0  0
   11.1972   22.9100    0.0000 H   0  0  0  0  0  0  0  0  0  0  0  0
   14.4361   13.0500    0.0000 H   0  0  0  0  0  0  0  0  0  0  0  0
   11.7341    8.0500    0.0000 H   0  0  0  0  0  0  0  0  0  0  0  0
   12.9292    8.7400    0.0000 H   0  0  0  0  0  0  0  0  0  0  0  0
   10.7642   13.1700    0.0000 H   0  0  0  0  0  0  0  0  0  0  0  0
   12.4962   16.1700    0.0000 H   0  0  0  0  0  0  0  0  0  0  0  0
   13.1371   19.7900    0.0000 H   0  0  0  0  0  0  0  0  0  0  0  0
   12.0632   24.4100    0.0000 H   0  0  0  0  0  0  0  0  0  0  0  0
   10.3312    7.2400    0.0000 H   0  0  0  0  0  0  0  0  0  0  0  0
   10.8681    6.3100    0.0000 H   0  0  0  0  0  0  0  0  0  0  0  0
   14.8691    8.6200    0.0000 H   0  0  0  0  0  0  0  0  0  0  0  0
   14.3322    9.5500    0.0000 H   0  0  0  0  0  0  0  0  0  0  0  0
   10.7642   11.5500    0.0000 H   0  0  0  0  0  0  0  0  0  0  0  0
   11.8380   11.5500    0.0000 H   0  0  0  0  0  0  0  0  0  0  0  0
   14.4361   16.0500    0.0000 H   0  0  0  0  0  0  0  0  0  0  0  0
   13.8992   16.9800    0.0000 H   0  0  0  0  0  0  0  0  0  0  0  0
   11.1972   19.9100    0.0000 H   0  0  0  0  0  0  0  0  0  0  0  0
   11.7341   18.9800    0.0000 H   0  0  0  0  0  0  0  0  0  0  0  0
   14.0031   24.2900    0.0000 H   0  0  0  0  0  0  0  0  0  0  0  0
   13.4662   25.2200    0.0000 H   0  0  0  0  0  0  0  0  0  0  0  0
   10.5390    2.8100    0.0000 H   0  0  0  0  0  0  0  0  0  0  0  0
    9.4651    2.8100    0.0000 H   0  0  0  0  0  0  0  0  0  0  0  0
   15.7352    2.8100    0.0000 H   0  0  0  0  0  0  0  0  0  0  0  0
   14.6613    2.8100    0.0000 H   0  0  0  0  0  0  0  0  0  0  0  0
  2 58  1  0  0  0  0
  3 59  1  0  0  0  0
 14  4  1  6  0  0  0
  4 72  1  0  0  0  0
 15  5  1  6  0  0  0
  5 73  1  0  0  0  0
 16  6  1  1  0  0  0
  6 74  1  0  0  0  0
 17  7  1  6  0  0  0
  7 75  1  0  0  0  0
  8 18  1  0  0  0  0
  8 76  1  0  0  0  0
  9 19  1  0  0  0  0
  9 77  1  0  0  0  0
 10 60  1  0  0  0  0
 11 61  1  0  0  0  0
 12 60  2  0  0  0  0
 13 61  2  0  0  0  0
 14 15  1  0  0  0  0
 14 16  1  0  0  0  0
 14 64  1  0  0  0  0
 15 17  1  0  0  0  0
 15 65  1  0  0  0  0
 16 18  1  0  0  0  0
 16 66  1  0  0  0  0
 17 19  1  0  0  0  0
 17 67  1  0  0  0  0
 18 68  1  0  0  0  0
 18 69  1  0  0  0  0
 19 70  1  0  0  0  0
 19 71  1  0  0  0  0
 20 21  1  0  0  0  0
 20 22  1  0  0  0  0
 20 78  1  0  0  0  0
 20 79  1  0  0  0  0
 21 23  1  0  0  0  0
 21 80  1  0  0  0  0
 21 81  1  0  0  0  0
 22 24  1  0  0  0  0
 22 82  1  0  0  0  0
 22 83  1  0  0  0  0
 23 25  1  0  0  0  0
 23 84  1  0  0  0  0
 23 85  1  0  0  0  0
 24 26  2  0  0  0  0
 24 86  1  0  0  0  0
 25 27  2  0  0  0  0
 25 87  1  0  0  0  0
 26 88  1  0  0  0  0
 26 89  1  0  0  0  0
 27 90  1  0  0  0  0
 27 91  1  0  0  0  0
 28 29  1  0  0  0  0
 28 30  2  0  0  0  0
 28 46  1  0  0  0  0
 29 31  2  0  0  0  0
 29 47  1  0  0  0  0
 30 35  1  0  0  0  0
 30 92  1  0  0  0  0
 31 36  1  0  0  0  0
 31 93  1  0  0  0  0
 32 34  2  0  0  0  0
 32 39  1  0  0  0  0
 32 48  1  0  0  0  0
 33 34  1  0  0  0  0
 33 40  2  0  0  0  0
 33 49  1  0  0  0  0
 34 94  1  0  0  0  0
 35 36  2  0  0  0  0
 35 95  1  0  0  0  0
 36 96  1  0  0  0  0
 37 41  2  0  0  0  0
 37 43  1  0  0  0  0
 37 50  1  0  0  0  0
 38 42  2  0  0  0  0
 38 44  1  0  0  0  0
 38 51  1  0  0  0  0
 39 45  2  0  0  0  0
 39 97  1  0  0  0  0
 40 45  1  0  0  0  0
 40 98  1  0  0  0  0
 41 42  1  0  0  0  0
 41 99  1  0  0  0  0
 42100  1  0  0  0  0
 43 44  2  0  0  0  0
 43101  1  0  0  0  0
 44102  1  0  0  0  0
 45103  1  0  0  0  0
 46 52  2  0  0  0  0
 46104  1  0  0  0  0
 47 53  2  0  0  0  0
 47105  1  0  0  0  0
 48 54  2  0  0  0  0
 48106  1  0  0  0  0
 49 55  2  0  0  0  0
 49107  1  0  0  0  0
 50 56  2  0  0  0  0
 50108  1  0  0  0  0
 51 57  2  0  0  0  0
 51109  1  0  0  0  0
 52110  1  0  0  0  0
 52111  1  0  0  0  0
 53112  1  0  0  0  0
 53113  1  0  0  0  0
 54114  1  0  0  0  0
 54115  1  0  0  0  0
 55116  1  0  0  0  0
 55117  1  0  0  0  0
 56118  1  0  0  0  0
 56119  1  0  0  0  0
 57120  1  0  0  0  0
 57121  1  0  0  0  0
 58 60  1  0  0  0  0
 58 62  2  0  0  0  0
 59 61  1  0  0  0  0
 59 63  2  0  0  0  0
 62122  1  0  0  0  0
 62123  1  0  0  0  0
 63124  1  0  0  0  0
 63125  1  0  0  0  0
M  CHG  3   1   2  10  -1  11  -1
M  END
> <PUBCHEM_COMPOUND_CID>
86580497

> <PUBCHEM_COMPOUND_CANONICALIZED>
1

> <PUBCHEM_CACTVS_COMPLEXITY>
556

> <PUBCHEM_CACTVS_HBOND_ACCEPTOR>
12

> <PUBCHEM_CACTVS_HBOND_DONOR>
6

> <PUBCHEM_CACTVS_ROTATABLE_BOND>
16

> <PUBCHEM_CACTVS_SUBSKEYS>
AAADcfB8PYAAAAgAAAAAAAAAAAAAAAAAAAAwYMAAAAAAAAABUAAAGwAACAAADBSgmAIwCIAAAgCIAiDSCAACAAAgAAAIiAAAAMgJNCKAERCAYAAlgAAJiIfA4MQOwAACAAAQAACAAAQAACAAAAAAAAAAAA==

> <PUBCHEM_IUPAC_OPENEYE_NAME>
calcium;1,2-divinylbenzene;1,3-divinylbenzene;1,4-divinylbenzene;2-fluoroprop-2-enoate;(2R,3R,4R,5S)-hexane-1,2,3,4,5,6-hexol;octa-1,7-diene

> <PUBCHEM_IUPAC_CAS_NAME>
calcium;1,2-bis(ethenyl)benzene;1,3-bis(ethenyl)benzene;1,4-bis(ethenyl)benzene;2-fluoro-2-propenoate;(2R,3R,4R,5S)-hexane-1,2,3,4,5,6-hexol;octa-1,7-diene

> <PUBCHEM_IUPAC_NAME_MARKUP>
calcium;1,2-bis(ethenyl)benzene;1,3-bis(ethenyl)benzene;1,4-bis(ethenyl)benzene;2-fluoroprop-2-enoate;(2<I>R</I>,3<I>R</I>,4<I>R</I>,5<I>S</I>)-hexane-1,2,3,4,5,6-hexol;octa-1,7-diene

> <PUBCHEM_IUPAC_NAME>
calcium;1,2-bis(ethenyl)benzene;1,3-bis(ethenyl)benzene;1,4-bis(ethenyl)benzene;2-fluoroprop-2-enoate;(2R,3R,4R,5S)-hexane-1,2,3,4,5,6-hexol;octa-1,7-diene

> <PUBCHEM_IUPAC_SYSTEMATIC_NAME>
calcium;1,2-bis(ethenyl)benzene;1,3-bis(ethenyl)benzene;1,4-bis(ethenyl)benzene;2-fluoranylprop-2-enoate;(2R,3R,4R,5S)-hexane-1,2,3,4,5,6-hexol;octa-1,7-diene

> <PUBCHEM_IUPAC_TRADITIONAL_NAME>
calcium;1,2-divinylbenzene;1,3-divinylbenzene;1,4-divinylbenzene;2-fluoroacrylate;(2R,3R,4R,5S)-hexane-1,2,3,4,5,6-hexol;octa-1,7-diene

> <PUBCHEM_IUPAC_INCHI>
InChI=1S/3C10H10.C8H14.C6H14O6.2C3H3FO2.Ca/c1-3-9-5-7-10(4-2)8-6-9;1-3-9-6-5-7-10(4-2)8-9;1-3-9-7-5-6-8-10(9)4-2;1-3-5-7-8-6-4-2;7-1-3(9)5(11)6(12)4(10)2-8;2*1-2(4)3(5)6;/h3*3-8H,1-2H2;3-4H,1-2,5-8H2;3-12H,1-2H2;2*1H2,(H,5,6);/q;;;;;;;+2/p-2/t;;;;3-,4+,5-,6-;;;/m....1.../s1

> <PUBCHEM_IUPAC_INCHIKEY>
KDDZXVQCHUXALQ-NIQIMLPHSA-L

> <PUBCHEM_EXACT_MASS>
900.3936953

> <PUBCHEM_MOLECULAR_FORMULA>
C50H62CaF2O10

> <PUBCHEM_MOLECULAR_WEIGHT>
901.1

> <PUBCHEM_OPENEYE_CAN_SMILES>
C=CCCCCC=C.C=CC1=CC=C(C=C1)C=C.C=CC1=CC(=CC=C1)C=C.C=CC1=CC=CC=C1C=C.C=C(C(=O)[O-])F.C=C(C(=O)[O-])F.C(C(C(C(C(CO)O)O)O)O)O.[Ca+2]

> <PUBCHEM_OPENEYE_ISO_SMILES>
C=CCCCCC=C.C=CC1=CC=C(C=C1)C=C.C=CC1=CC(=CC=C1)C=C.C=CC1=CC=CC=C1C=C.C=C(C(=O)[O-])F.C=C(C(=O)[O-])F.C([C@H]([C@H]([C@@H]([C@H](CO)O)O)O)O)O.[Ca+2]

> <PUBCHEM_CACTVS_TPSA>
202

> <PUBCHEM_MONOISOTOPIC_WEIGHT>
900.3936953

> <PUBCHEM_TOTAL_CHARGE>
0

> <PUBCHEM_HEAVY_ATOM_COUNT>
63

> <PUBCHEM_ATOM_DEF_STEREO_COUNT>
4

> <PUBCHEM_ATOM_UDEF_STEREO_COUNT>
0

> <PUBCHEM_BOND_DEF_STEREO_COUNT>
0

> <PUBCHEM_BOND_UDEF_STEREO_COUNT>
0

> <PUBCHEM_ISOTOPIC_ATOM_COUNT>
0

> <PUBCHEM_COMPONENT_COUNT>
8

> <PUBCHEM_CACTVS_TAUTO_COUNT>
-1

> <PUBCHEM_COORDINATE_TYPE>
1
5
255

> <PUBCHEM_BONDANNOTATIONS>
28  29  8
28  30  8
29  31  8
30  35  8
31  36  8
32  34  8
32  39  8
33  34  8
33  40  8
35  36  8
37  41  8
37  43  8
38  42  8
38  44  8
39  45  8
14  4  6
40  45  8
41  42  8
43  44  8
15  5  6
16  6  5
17  7  6

$$$$
